LAMMPS (29 Aug 2024 - Update 2)
  using 4 OpenMP thread(s) per MPI task
Reading data file ...
  orthogonal box = (0 0 0) to (22.43 5 5)
  1 by 1 by 1 MPI processor grid
  reading atoms ...
  20 atoms
  scanning bonds ...
  1 = max bonds/atom
  orthogonal box = (0 0 0) to (22.43 5 5)
  1 by 1 by 1 MPI processor grid
  reading bonds ...
  19 bonds
Finding 1-2 1-3 1-4 neighbors ...
  special bond factors lj:    0        0        0       
  special bond factors coul:  0        0        0       
     2 = max # of 1-2 neighbors
     2 = max # of 1-3 neighbors
     4 = max # of 1-4 neighbors
     6 = max # of special neighbors
  special bonds CPU = 0.000 seconds
  read_data CPU = 0.002 seconds
Generated 0 of 0 mixed pair_coeff terms from geometric mixing rule
Neighbor list info ...
  update: every = 1 steps, delay = 0 steps, check = yes
  max neighbors/atom: 2000, page size: 100000
  master list distance cutoff = 2.8
  ghost atom cutoff = 6
  binsize = 1.4, bins = 17 4 4
  2 neighbor lists, perpetual/occasional/extra = 1 1 0
  (1) pair lj/cut, perpetual
      attributes: half, newton on
      pair build: half/bin/newton
      stencil: half/bin/3d
      bin: standard
  (2) compute rdf, occasional
      attributes: half, newton on, cut 5.3
      pair build: half/bin/newton
      stencil: half/bin/3d
      bin: standard
Setting up Verlet run ...
  Unit style    : lj
  Current step  : 0
  Time step     : 0.0025
Per MPI rank memory allocation (min/avg/max) = 9.212 | 9.212 | 9.212 Mbytes
   Step          Temp          E_pair         E_mol          TotEng         Press     
         0   0.5            0              4.0204         4.7329         0.42010641   
       100   1.9030988      0              0.623716       3.3356319      0.1531189    
       200   0.57235012    -0.0014440081   0.90097867     1.7151336     -0.085357005  
       300   0.53079402    -0.0015476914   0.17789484     0.93272863    -0.042151435  
       400   0.43247993    -0.00096559259  0.090825147    0.70614345    -0.020403608  
       500   0.48605637    -2.8955728e-06  0.1122731      0.80490053     0.041598004  
       600   0.55258553     0              0.30494874     1.0923831     -0.075051198  
       700   0.63678174     0              0.35559365     1.2630076      0.016270774  
       800   0.47594683     0              0.35352869     1.0317529     -0.077891898  
       900   0.47821599     0              0.20491985     0.88637763    -0.011458366  
      1000   0.46231426     0              0.27133877     0.93013659     0.028034425  
      1100   0.49893934     0              0.38807228     1.0990608     -0.071820436  
      1200   0.74085565     0              0.16500157     1.2207209      0.051115284  
      1300   0.319813       0              0.46255672     0.91829024    -0.081149693  
      1400   0.40929577     0              0.31472832     0.89797479     0.067570184  
      1500   0.63253453     0              0.22015514     1.1215168     -0.040258131  
      1600   0.68917471     0              0.26149488     1.2435688      0.059046419  
      1700   0.61576994     0              0.18305499     1.0605272     -0.033373924  
      1800   0.53013869     0              0.23708297     0.9925306      0.012253692  
      1900   0.55685474    -0.00015443346  0.12224868     0.91561225     0.014184673  
      2000   0.41466577    -0.00026255115  0.23104358     0.82167976     0.0060354395 
      2100   0.47654282    -0.00083656462  0.2324667      0.91070366    -0.013884907  
      2200   0.6682416     -0.0011448383   0.25693793     1.2080374      0.0304366    
      2300   0.61708104    -0.0016157404   0.23833529     1.11606        0.048915077  
      2400   0.43925647    -0.0034530905   0.24134903     0.8638364     -0.013099566  
      2500   0.40104894    -0.0090377707   0.28879529     0.85125226     0.0070819089 
      2600   0.44670388    -0.0230515      0.32705052     0.94055205    -0.032341414  
      2700   0.57955527    -0.080043698    0.21767896     0.96350153     0.038496375  
      2800   0.57204749    -0.15608259     0.16805576     0.82714084    -0.0023000004 
      2900   0.53340063    -0.30830498     0.28532982     0.73712074    -0.011083746  
      3000   0.51401216    -0.35082493     0.17885757     0.56049996     0.025390907  
      3100   0.4636123     -0.37707052     0.17941927     0.46299628     0.015502354  
      3200   0.54200442    -0.43410917     0.18524606     0.52349319    -0.0074961592 
      3300   0.6087803     -0.47501874     0.30622954     0.69872274    -0.009184586  
      3400   0.54696277    -0.61898292     0.19963373     0.36007276     0.020503695  
      3500   0.39914124    -0.61558816     0.21320527     0.16639337     0.027142552  
      3600   0.44649959    -0.69286066     0.30589239     0.24929366     0.041120384  
      3700   0.60130135    -0.63672962     0.2156344      0.43575919     0.03221969   
      3800   0.59399867    -0.77438398     0.20546572     0.27752984    -0.00090994092
      3900   0.43064169    -0.84388545     0.16491298    -0.065308064    0.06407132   
      4000   0.35976915    -0.93560736     0.26660703    -0.15632931     0.0053265362 
      4100   0.35058363    -0.96963711     0.27595772    -0.19409771     0.037194742  
      4200   0.64136921    -1.2080797      0.36811119     0.073982624    0.03365775   
      4300   0.68204276    -1.3133809      0.32111425    -0.020355671    0.010493424  
      4400   0.60184838    -1.2665592      0.17805372    -0.23087158     0.029201307  
      4500   0.55016771    -1.4942813      0.22469434    -0.48559793     0.0034216817 
      4600   0.37720797    -1.6635789      0.41547002    -0.71058752    -0.061684337  
      4700   0.52076744    -1.6275504      0.18837638    -0.69708038    -0.01257155   
      4800   0.51770904    -1.4710226      0.1786008     -0.55468646    -0.018534494  
      4900   0.69094835    -1.4941076      0.28644646    -0.22305977     0.03379003   
      5000   0.6530537     -1.569014       0.1556542     -0.48275829    -0.030844033  
      5100   0.5105429     -1.6781822      0.25586516    -0.69479342    -0.043836399  
      5200   0.50020833    -1.5204743      0.081439377   -0.72623807    -0.003854679  
      5300   0.5235232     -1.7234721      0.27396902    -0.70348251     0.068584617  
      5400   0.57338392    -1.7679885      0.17101349    -0.7799029     -0.034475689  
      5500   0.48294958    -2.0346598      0.27010345    -1.0763532     -0.047121544  
      5600   0.48158295    -2.0182115      0.15288072    -1.1790751     -0.0087043688 
      5700   0.57282744    -2.1160194      0.13918231    -1.1605579     -0.048850828  
      5800   0.39080496    -2.0631533      0.16155263    -1.3447036      0.014214646  
      5900   0.36544036    -2.1806701      0.080396598   -1.579521       0.041452558  
      6000   0.52724805    -2.4240164      0.15281133    -1.5198766     -0.036535376  
      6100   0.52205649    -2.3187085      0.25474946    -1.3200285      0.00038428956
      6200   0.41045181    -2.102344       0.32052382    -1.1969264     -0.0022754788 
      6300   0.4921911     -2.1979575      0.32010473    -1.1764805      0.037337451  
      6400   0.46293182    -2.164915       0.26804708    -1.2371901     -0.0034581522 
      6500   0.48422332    -2.2071038      0.27664787    -1.2404377      0.049441726  
      6600   0.5263496     -2.1837499      0.28529546    -1.1484063     -0.033417264  
      6700   0.48464361    -1.9208869      0.19875882    -1.0315109     -0.070590847  
      6800   0.6317254     -1.9390949      0.23353108    -0.80535511    -0.0045030591 
      6900   0.70120991    -1.9979594      0.23844113    -0.76029416    -0.020214105  
      7000   0.48130626    -2.021259       0.29163689    -1.0437607     -0.0057309907 
      7100   0.49247455    -2.0361207      0.20203417    -1.1323103     -0.032887574  
      7200   0.60924555    -2.2494789      0.12926061    -1.2520433      0.085266366  
      7300   0.49630906    -2.3529554      0.26020253    -1.3855125      0.0097769502 
      7400   0.46342066    -2.3237947      0.11817808    -1.5452422      0.060234944  
      7500   0.34645697    -2.3072807      0.18536172    -1.6282178     -0.021854152  
      7600   0.5290343     -2.3338647      0.18482888    -1.3951619     -0.031260365  
      7700   0.53130656    -2.3072911      0.21581128    -1.334368      -0.0056310321 
      7800   0.48256566    -2.33628        0.28035804    -1.3682659      0.044658138  
      7900   0.52127034    -2.306164       0.21662366    -1.3467301     -0.039105973  
      8000   0.51993586    -2.435933       0.58536205    -1.1096624     -0.010173531  
      8100   0.64993859    -2.2429973      0.30439913    -1.0124357     -0.038201592  
      8200   0.41961512    -2.2408634      0.25015574    -1.3927561     -0.0026722502 
      8300   0.50806381    -2.3218573      0.14777105    -1.4500953      0.042011698  
      8400   0.45004313    -2.3292248      0.23729935    -1.450614       0.017814773  
      8500   0.43445329    -2.2257667      0.25532901    -1.3513418      0.0077643434 
      8600   0.7528569     -2.2734698      0.19337605    -1.0072726      0.050817117  
      8700   0.6458573     -2.2450228      0.15301313    -1.171663       0.027774366  
      8800   0.55355543    -2.3622715      0.19404117    -1.3794139     -8.9001334e-05
      8900   0.40453264    -2.4578474      0.29206445    -1.5893239      0.030980357  
      9000   0.46082345    -2.4786984      0.19508377    -1.6269412     -0.016073699  
      9100   0.49281163    -2.5763947      0.21678514    -1.6573529      0.022027252  
      9200   0.53189141    -2.7191211      0.25924398    -1.7019319      0.051228971  
      9300   0.40726622    -2.8297724      0.19034206    -2.059076      -0.0048383941 
      9400   0.38417891    -2.9943905      0.27014065    -2.1767949     -0.056735487  
      9500   0.372932      -2.806439       0.19164242    -2.0833685     -0.077630571  
      9600   0.60093951    -2.89473        0.22223469    -1.8161565      0.018858256  
      9700   0.54557391    -2.6834325      0.18608791    -1.7199018     -0.036549567  
      9800   0.58092021    -2.7419247      0.17884646    -1.735267      -0.039798811  
      9900   0.39627039    -2.7037082      0.22566704    -1.9133558     -0.0066586328 
     10000   0.45012402    -2.8923803      0.32980647    -1.9211471      0.051422581  
     10100   0.44179455    -2.7972595      0.26346296    -1.9042393     -0.022630122  
     10200   0.48211807    -2.7804055      0.25493208    -1.8384552      0.0057925865 
     10300   0.48692901    -2.760508       0.30928116    -1.757353       0.0037053039 
     10400   0.57232582    -2.8198344      0.27771895    -1.7265512     -0.015782396  
     10500   0.50513914    -2.7726173      0.18976975    -1.8630243      0.038386426  
     10600   0.41923975    -2.8855367      0.19349446    -2.0946256     -0.031473687  
     10700   0.42565152    -2.8828786      0.18162221    -2.094703       0.062878153  
     10800   0.57972647    -2.8354435      0.22692322    -1.7824101      0.035868232  
     10900   0.63780127    -2.7175496      0.17696428    -1.6317185      0.070281993  
     11000   0.50469096    -2.5596188      0.16588224    -1.674552      -0.00067312933
     11100   0.51864357    -2.7172391      0.27035799    -1.7078141      0.014110166  
     11200   0.41418644    -2.5573027      0.24561033    -1.7214767     -0.017347638  
     11300   0.62521479    -2.6182109      0.21620753    -1.5110723      0.062978181  
     11400   0.49364179    -2.2602874      0.14070505    -1.4161428     -0.0023202489 
     11500   0.7570101     -2.7949888      0.24988636    -1.4663631      0.025601423  
     11600   0.43513722    -2.7164667      0.14148725    -1.9549089     -0.0051205319 
     11700   0.53049045    -2.7859214      0.060749889   -1.9692226      0.025493689  
     11800   0.50032552    -2.8474739      0.31920169    -1.8153083      0.018808525  
     11900   0.52754908    -2.6533184      0.31009627    -1.5914646      0.044658128  
     12000   0.51048948    -2.458211       0.20142946    -1.529334       0.050019739  
     12100   0.63970508    -2.630772       0.17384418    -1.5453481      0.010649389  
     12200   0.45533264    -2.704389       0.28878761    -1.7667524     -0.090348362  
     12300   0.4142041     -2.7183084      0.18031986    -1.9477477     -0.0065159139 
     12400   0.46134747    -2.6926309      0.15878508    -1.8764256     -0.023763431  
     12500   0.53552558    -2.6049035      0.22976683    -1.6120127     -0.020320495  
     12600   0.5464001     -2.550964       0.16599868    -1.6063452      0.017947085  
     12700   0.47924032    -2.6573585      0.26932505    -1.705116       0.0054115426 
     12800   0.53525652    -2.7723384      0.23017372    -1.7794241     -0.055563324  
     12900   0.4264791     -2.7281414      0.25781279    -1.8625959     -0.0057729643 
     13000   0.54013073    -2.8008023      0.20177313    -1.8293429     -0.056188807  
     13100   0.56688746    -2.7397316      0.16588859    -1.7660284     -0.030178525  
     13200   0.60737993    -2.864262       0.18806299    -1.8106826     -0.012085626  
     13300   0.48753699    -2.6813111      0.14981616    -1.8367547     -0.023501184  
     13400   0.49991666    -2.5982915      0.24734452    -1.6385658     -0.030131012  
     13500   0.57090347    -2.410203       0.16394854    -1.4327171      0.020634931  
     13600   0.53611638    -2.3771111      0.18660905    -1.4265362      0.034416133  
     13700   0.54246027    -2.4590519      0.15806911    -1.5279769      0.054098685  
     13800   0.45486632    -2.6148685      0.17421666    -1.7924673      0.00013949205
     13900   0.41173638    -2.6202974      0.15667829    -1.8768948     -0.01061607   
     14000   0.61225088    -2.7312017      0.17443312    -1.6843111      0.032351415  
     14100   0.61174154    -2.7158305      0.29836805    -1.5457308      0.056335195  
     14200   0.41410275    -2.7195204      0.24890498    -1.880519       0.051456886  
     14300   0.42976667    -2.8599117      0.25140527    -1.9960889      0.032310554  
     14400   0.40213946    -2.6963348      0.21956526    -1.9037208      0.0035058435 
     14500   0.50386527    -2.8114245      0.34271521    -1.7507013      0.057838773  
     14600   0.52618388    -2.6585193      0.14236537    -1.7663419     -0.032300472  
     14700   0.46889994    -2.7871913      0.23595716    -1.8830517     -0.051398256  
     14800   0.4993133     -3.0506256      0.34361262    -1.9954915      0.01287168   
     14900   0.40018592    -2.914569       0.22148398    -2.1228201     -0.0076275775 
     15000   0.4188467     -3.0356485      0.33675486    -2.102037      -0.10735595   
     15100   0.5191097     -2.8933244      0.28900128    -1.8645917     -0.037563559  
     15200   0.5310812     -2.7250505      0.33273817    -1.6355216     -0.02844335   
     15300   0.42616024    -2.6135649      0.36776675    -1.6385198     -0.072112647  
     15400   0.46726337    -2.6043632      0.33430873    -1.6042042      0.017096436  
     15500   0.64337882    -2.5734499      0.1467444     -1.5098907     -0.04376661   
     15600   0.51498066    -2.5523415      0.30518939    -1.5133047      0.0051719927 
     15700   0.44591651    -2.5255338      0.2518979     -1.6382049     -0.036808252  
     15800   0.54879332    -2.6452213      0.21064975    -1.6525411      0.025332555  
     15900   0.52259758    -2.553159       0.13848671    -1.6699707     -0.026349469  
     16000   0.43682006    -2.407274       0.22470559    -1.5600998     -0.046622199  
     16100   0.62893599    -2.2854778      0.1350309     -1.2542132     -0.042928944  
     16200   0.52312438    -2.4167855      0.33133846    -1.3399948      0.025501886  
     16300   0.48549835    -2.3804951      0.21723678    -1.4714232     -0.030996171  
     16400   0.5202753     -2.6367126      0.30051324    -1.5948071     -0.0090153172 
     16500   0.25172774    -2.6729493      0.43349251    -1.8807448     -0.0086347875 
     16600   0.38389731    -2.6849642      0.21942064    -1.9184899      0.037171761  
     16700   0.3448709     -2.7154019      0.47236211    -1.7515988     -0.010816751  
     16800   0.49204666    -2.6540082      0.31413251    -1.6387092     -0.047174882  
     16900   0.49428695    -2.5028684      0.26979712    -1.5287123     -0.0033526983 
     17000   0.55537262    -2.4921777      0.25316784    -1.4476039     -0.00061662942
     17100   0.45908273    -2.2906398      0.2067795     -1.4296674      0.040416361  
     17200   0.76731032    -2.5319634      0.14417214    -1.2943741      0.052757765  
     17300   0.53081194    -2.5735169      0.31291938    -1.5041905      0.0070100238 
     17400   0.38220881    -2.486946       0.27241784    -1.6698806      0.0087616967 
     17500   0.54138421    -2.5796664      0.24402328    -1.5641706      0.0097862702 
     17600   0.56067907    -2.5210072      0.27276914    -1.4492704      0.088349791  
     17700   0.41884796    -2.3784654      0.26998319    -1.5116239     -0.0062772106 
     17800   0.47983152    -2.6708513      0.19698966    -1.7901017      0.035282516  
     17900   0.34595301    -2.6271421      0.10781788    -2.0263412     -0.031048396  
     18000   0.40979831    -2.7307719      0.16852301    -1.9782863     -0.007026602  
     18100   0.48464339    -2.5983634      0.16407246    -1.7436741      0.0039707154 
     18200   0.58051168    -2.5918994      0.18187208    -1.5827982      0.015093645  
     18300   0.57226554    -2.698542       0.21894066    -1.664123       0.0083113889 
     18400   0.50467255    -2.6482971      0.14557901    -1.7835597     -0.019150301  
     18500   0.64888402    -2.8931875      0.16324856    -1.8052792      0.052502237  
     18600   0.40684363    -2.8231019      0.22197305    -2.0213767     -0.016667055  
     18700   0.31019672    -2.8189272      0.23838161    -2.1385153     -0.049882413  
     18800   0.60501528    -2.9045034      0.15505373    -1.8873029      0.041377193  
     18900   0.50629571    -2.7256544      0.32262282    -1.6815602     -0.026134257  
     19000   0.60751393    -2.7371336      0.17278289    -1.6986433      0.092954706  
     19100   0.44576623    -2.8517412      0.093161064   -2.1233633     -0.029959096  
     19200   0.36261039    -2.8846538      0.26634376    -2.1015902     -0.0074090748 
     19300   0.54409299    -2.7677116      0.13219331    -1.8601858      0.071543542  
     19400   0.68853394    -2.9684409      0.27519367    -1.7120864      0.092458321  
     19500   0.50928729    -2.7196754      0.16831283    -1.8256282     -0.033791766  
     19600   0.46738703    -2.7458426      0.14106636    -1.9387497     -0.024678839  
     19700   0.40253393    -2.7898597      0.17469617    -2.0415527     -0.020101064  
     19800   0.42455668    -2.7543735      0.2639263     -1.8854539     -0.043711656  
     19900   0.58603806    -2.6649202      0.19538724    -1.6344288     -0.047891329  
     20000   0.49946613    -2.5086274      0.1940268     -1.6028613     -0.041828081  
     20100   0.56530282    -2.5829336      0.22514974    -1.5522273      0.011846693  
     20200   0.46900757    -2.5511939      0.16528103    -1.7175771     -0.048780222  
     20300   0.48114599    -2.8535516      0.26476815    -1.9031504     -0.0068100118 
     20400   0.45637395    -2.8047133      0.1838979     -1.9704826      0.014027917  
     20500   0.54530155    -2.8218958      0.19145479    -1.8533863      0.016895933  
     20600   0.58403433    -2.7179295      0.28643605    -1.5992445      0.033727675  
     20700   0.62876552    -2.5589787      0.20006207    -1.4629257      0.027971948  
     20800   0.65596501    -2.4474357      0.31592407    -1.1967615     -0.035598837  
     20900   0.73842245    -2.5242206      0.25561069    -1.2163579     -0.0290085    
     21000   0.4031331     -2.3667669      0.20906898    -1.5832333      0.0022540189 
     21100   0.4399079     -2.4271761      0.23901951    -1.5612879     -0.0097043491 
     21200   0.75836017    -2.6701799      0.17195909    -1.4175576     -0.016783379  
     21300   0.52798748    -2.7177118      0.17875202    -1.7865776      0.03892862   
     21400   0.49712141    -2.8390511      0.17950153    -1.9511515      0.027624957  
     21500   0.47997892    -2.8999026      0.23490382    -1.9810288     -0.02886498   
     21600   0.59540812    -3.0634799      0.29491232    -1.920111       0.0019397528 
     21700   0.47293371    -2.8118483      0.21370701    -1.9242108     -0.027182327  
     21800   0.56487175    -2.8580655      0.23485623    -1.818267       0.036511633  
     21900   0.55026393    -2.7157075      0.22848063    -1.7031008     -0.024422796  
     22000   0.48959221    -2.8087635      0.40781016    -1.7032844      0.025835281  
     22100   0.52109216    -2.7772465      0.15922637    -1.8754638     -0.086995949  
     22200   0.36284721    -2.7444492      0.17741318    -2.0499788     -0.077467368  
     22300   0.43467109    -2.9279805      0.32412995    -1.9844443      0.00073269735
     22400   0.54518619    -2.6656439      0.20550535    -1.6832482     -0.06622498   
     22500   0.64732102    -2.6699287      0.28405083    -1.4634454      0.005398976  
     22600   0.62756151    -2.8232557      0.31252076    -1.6164598      0.02538849   
     22700   0.52310086    -2.852728       0.23170054    -1.8756087     -0.056579618  
     22800   0.50618299    -2.7805327      0.16511565    -1.8941063     -0.015550423  
     22900   0.52131127    -2.7404877      0.11265606    -1.8849631     -0.047014679  
     23000   0.46885492    -2.7706549      0.37980435    -1.7227323     -0.049464959  
     23100   0.66259513    -2.7116753      0.27665892    -1.4908184     -0.079210965  
     23200   0.45206886    -2.7243225      0.34593459    -1.7341898     -0.080624836  
     23300   0.44302389    -2.8097006      0.16962283    -2.0087687      0.0016700586 
     23400   0.44377109    -2.7512385      0.14628807    -1.9725766      0.07731772   
     23500   0.45176291    -2.8057353      0.27646091    -1.8855122     -0.0088314332 
     23600   0.538625      -2.677595       0.33188126    -1.5781731      0.018699462  
     23700   0.68844076    -2.6685286      0.2434258     -1.4440747      0.023369751  
     23800   0.629859      -2.6258484      0.15693336    -1.571366       0.013662214  
     23900   0.4935047     -2.6963228      0.1733637     -1.8197149      0.10328756   
     24000   0.42071791    -2.722922       0.14002816    -1.9833708      0.015400822  
     24100   0.55956788    -2.9492568      0.20469883    -1.9471737      0.039174906  
     24200   0.51611075    -2.8867626      0.20407111    -1.9472336      0.044428259  
     24300   0.58421707    -2.8398111      0.082179146   -1.9251226      0.072098358  
     24400   0.37897178    -2.6824043      0.20261748    -1.939752      -0.0090020394 
     24500   0.54112084    -2.7606142      0.21309163    -1.7764253     -0.034293474  
     24600   0.57841649    -2.5569838      0.19031341    -1.5424269      0.0074074361 
     24700   0.58152914    -2.6527686      0.29277429    -1.5313153     -0.004287558  
     24800   0.47693916    -2.5962221      0.20896842    -1.7076154      0.01937373   
     24900   0.47442098    -2.6821234      0.12878195    -1.8772915      0.06506038   
     25000   0.41172664    -2.7614955      0.10505489    -2.0697301      0.024648135  
     25100   0.31690093    -2.5994574      0.13985428    -2.0080193     -0.019396548  
     25200   0.52824354    -2.6638263      0.20634068    -1.7047386      0.046564405  
     25300   0.54195508    -2.454506       0.080851819   -1.6013681      0.038082084  
     25400   0.64115046    -2.5573224      0.20307138    -1.4406116     -0.031332772  
     25500   0.53772107    -2.3646832      0.16617474    -1.432256       0.041762548  
     25600   0.43982564    -2.456652       0.22129934    -1.6086011      0.009190207  
     25700   0.49972905    -2.6530914      0.12310038    -1.8178771     -0.016519306  
     25800   0.41120142    -2.6640808      0.15664847    -1.9214703      0.020808935  
     25900   0.4104153     -2.6052337      0.29144485    -1.7289471      0.062503635  
     26000   0.53242902    -2.4199604      0.25357472    -1.4076743      0.047472731  
     26100   0.54447428    -2.3428639      0.18816674    -1.3788213      0.069978072  
     26200   0.58732418    -2.5369737      0.19171699    -1.5083197      0.051751959  
     26300   0.41838728    -2.6488881      0.27083842    -1.7818478     -0.011654936  
     26400   0.39013231    -2.6872314      0.28144408    -1.8498488     -0.044525448  
     26500   0.45203383    -2.7309262      0.31332011    -1.7734579      0.024562355  
     26600   0.4715322     -2.7074922      0.27132316    -1.7642356     -0.031611136  
     26700   0.43460915    -2.6688831      0.27487436    -1.7746907      0.034429962  
     26800   0.39099901    -2.5883765      0.35191735    -1.6792855     -0.058429169  
     26900   0.82911144    -2.7755844      0.21728318    -1.3768174     -0.052432852  
     27000   0.54704294    -2.6577424      0.26119782    -1.6170084      0.035638074  
     27100   0.44626721    -2.7768094      0.22671194    -1.9141667     -0.034656394  
     27200   0.43000711    -2.6506196      0.17482867    -1.8630308     -0.090235347  
     27300   0.48998746    -2.6583189      0.32205652    -1.6380302     -0.078830207  
     27400   0.50195666    -2.5677595      0.29159678    -1.5608745     -0.026948029  
     27500   0.56866679    -2.5512323      0.27823354    -1.4626486     -0.065462264  
     27600   0.69829236    -2.2974665      0.26724734    -1.0351525      0.06440246   
     27700   0.39782041    -2.2362444      0.5558607     -1.1134896      0.086244523  
     27800   0.50649361    -2.1582061      0.20470873    -1.2317439     -0.015035283  
     27900   0.54988748    -2.3637491      0.21996021    -1.3601993     -0.0070588069 
     28000   0.53846361    -2.5147308      0.18192614    -1.565494       0.026194962  
     28100   0.58983643    -2.6641863      0.12377003    -1.6998993      0.009758728  
     28200   0.50911337    -2.5784003      0.15157667    -1.701337      -0.0017098597 
     28300   0.73686928    -2.7365064      0.34009224    -1.3463754     -0.057476578  
     28400   0.49853805    -2.5552653      0.47258301    -1.3722656     -0.080994875  
     28500   0.46818951    -2.6489391      0.4738069     -1.5079622     -0.092441257  
     28600   0.45252035    -2.536368       0.2650952     -1.6264313     -0.058033297  
     28700   0.47270964    -2.558043       0.24810771    -1.636324      -0.00069242331
     28800   0.49593629    -2.5801814      0.28001915    -1.593453       0.037427844  
     28900   0.5008029     -2.6504041      0.2340567     -1.7027032     -0.047287244  
     29000   0.40871801    -2.7142195      0.20452552    -1.9272708     -0.069313325  
     29100   0.38163812    -2.7948479      0.22917408    -2.0218395     -0.065394245  
     29200   0.57129449    -2.6434943      0.11991086    -1.7094888      0.016779834  
     29300   0.47071258    -2.5936619      0.46833636    -1.4545601      0.059613292  
     29400   0.59210314    -2.5334795      0.25334764    -1.4363849     -0.053034663  
     29500   0.5373024     -2.6797814      0.17779993    -1.7363255     -0.035925896  
     29600   0.45812476    -2.7593684      0.18056444    -1.9259762      0.047711449  
     29700   0.4750338     -2.9924495      0.40028094    -1.9152454     -0.015985491  
     29800   0.51054593    -2.921181       0.31008242    -1.8835706     -0.045295929  
     29900   0.43980831    -2.7006252      0.30794118    -1.7659572     -0.055093818  
     30000   0.56665334    -2.5543593      0.22747989    -1.5193984      0.026085248  
     30100   0.52567492    -2.4966992      0.32770335    -1.4199091      0.025346742  
     30200   0.56220397    -2.7773983      0.1824267     -1.7938309      0.017660596  
     30300   0.52900439    -2.8841453      0.20851647    -1.9217976     -0.058360773  
     30400   0.5173015     -2.9134523      0.17050004    -2.0057977      0.003609943  
     30500   0.30280902    -2.8421842      0.32648342    -2.0841979      0.0057695669 
     30600   0.59413082    -2.7846851      0.1432829     -1.7947658     -0.00076940226
     30700   0.69672532    -2.9092222      0.26664662    -1.649742      -0.045655379  
     30800   0.46358783    -2.8105965      0.2669974     -1.8829864     -0.077505291  
     30900   0.48628924    -2.8623002      0.2055794     -1.9637587     -0.017499071  
     31000   0.49943192    -2.9782594      0.21836826    -2.0482006     -0.011147917  
     31100   0.42110001    -3.1097673      0.20472999    -2.3049698      0.026629607  
     31200   0.32096544    -3.091554       0.15863697    -2.4755412     -0.015813786  
     31300   0.38054159    -3.0495538      0.1886859     -2.3185961     -0.0049147191 
     31400   0.43460569    -2.9282269      0.15363094    -2.1552829      0.0047562835 
     31500   0.57969583    -2.999086       0.16890577    -2.0041137      0.053429288  
     31600   0.48521106    -2.7379366      0.15166853    -1.8948423      0.068284987  
     31700   0.51843507    -2.5358764      0.15818323    -1.6389232      0.018165325  
     31800   0.7192283     -2.7578805      0.17230773    -1.5606725     -0.0043051399 
     31900   0.56556383    -2.7879373      0.23397731    -1.7480315      0.022470697  
     32000   0.49366428    -2.8006765      0.17152252    -1.9256823      0.014668699  
     32100   0.44745436    -2.9877369      0.22720742    -2.122907      -0.0062894187 
     32200   0.40472586    -2.8173997      0.078219991   -2.1624453     -0.03193966   
     32300   0.45876415    -2.849231       0.15859493    -2.0368971      0.011489649  
     32400   0.67669524    -3.0044441      0.13976635    -1.900387       0.03368313   
     32500   0.42396658    -2.8249227      0.25399872    -1.9667716     -0.037565674  
     32600   0.44411877    -2.8889952      0.33708292    -1.919043      -0.021116646  
     32700   0.67607867    -2.7763902      0.20335793    -1.6096202      0.05834581   
     32800   0.52032305    -2.5971504      0.31264247    -1.5430476      0.016493127  
     32900   0.48805013    -2.5542912      0.15388353    -1.7049362      0.019070094  
     33000   0.46859136    -2.8711476      0.21880478    -1.9846001     -0.0065247498 
     33100   0.38039589    -2.9875966      0.28075329    -2.1647792     -0.0068859365 
     33200   0.32900634    -2.8041982      0.1654248     -2.1699394     -0.034733078  
     33300   0.47531108    -2.7647355      0.12282229    -1.9645949     -0.040025791  
     33400   0.46327937    -2.7532903      0.22122528    -1.8718919      0.038060189  
     33500   0.35816491    -2.6074073      0.27357741    -1.8234449     -0.041106633  
     33600   0.60039127    -2.7562185      0.34418527    -1.5564756      0.0033817831 
     33700   0.70202139    -2.6871245      0.19669692    -1.4900471     -0.0017789396 
     33800   0.50807758    -2.6570632      0.22228073    -1.7107719      0.018099813  
     33900   0.5481082     -2.757117       0.12557178    -1.850491       0.0091825044 
     34000   0.52562512    -2.8306283      0.14444148    -1.937171       0.024155361  
     34100   0.43985612    -2.8070459      0.20225484    -1.9779961     -0.051939544  
     34200   0.46459688    -2.8467193      0.25300868    -1.9316601     -0.028670582  
     34300   0.52345038    -2.6739212      0.237069      -1.6909354     -0.052218073  
     34400   0.66392725    -2.5503775      0.17572463    -1.4285566     -0.012499299  
     34500   0.5484583     -2.6525451      0.35831561    -1.5126764      0.037352411  
     34600   0.42856776    -2.7406064      0.29132694    -1.8385704      0.018023489  
     34700   0.44776748    -2.8334         0.2696321     -1.9256992     -0.051678766  
     34800   0.50909118    -2.9487862      0.29867096    -1.9246604      0.058972973  
     34900   0.45078185    -2.8221884      0.19795805    -1.9818663      0.034641865  
     35000   0.39329103    -2.8926738      0.19639378    -2.1358403      0.044469445  
     35100   0.33416984    -2.9169157      0.20280518    -2.2379185      0.039711346  
     35200   0.53591801    -3.0461063      0.21332992    -2.0690932     -0.0019170503 
     35300   0.47553572    -2.677376       0.14645435    -1.8532833      0.0076257292 
     35400   0.48134117    -2.5744471      0.17813099    -1.710405       0.014869822  
     35500   0.60298387    -2.6584818      0.23443902    -1.5647908     -0.009689371  
     35600   0.57652734    -2.6670076      0.24997881    -1.5954774     -0.024181163  
     35700   0.49696185    -2.6284161      0.22217099    -1.6980745      0.0085841876 
     35800   0.45147974    -2.5504583      0.20963924    -1.6974604     -0.0035962577 
     35900   0.63170121    -2.643281       0.18704815    -1.5560586      0.034457616  
     36000   0.54608834    -2.9372262      0.27897174    -1.8800786     -0.005218227  
     36100   0.36617748    -2.8233367      0.20912325    -2.0924105      0.0037617272 
     36200   0.55544655    -2.9312598      0.14477939    -1.994969       0.062936597  
     36300   0.30939936    -2.6127202      0.3625003     -1.8093258      0.044669138  
     36400   0.49876725    -2.52763        0.22413507    -1.5927516      0.038549409  
     36500   0.528208      -2.6611449      0.2547743     -1.6536742      0.046171244  
     36600   0.49739128    -2.645231       0.11185477    -1.8245937      0.010697419  
     36700   0.48635569    -2.7635028      0.092243614   -1.9782023     -0.020815577  
     36800   0.50321741    -2.7769789      0.1667215     -1.8931726      0.028131991  
     36900   0.59671986    -2.6151839      0.24190651    -1.5229516      0.014788578  
     37000   0.44354878    -2.3276291      0.20136567    -1.4942065     -0.047599926  
     37100   0.53728599    -2.3430132      0.22221119    -1.3551694     -0.034813304  
     37200   0.65912958    -2.4623073      0.27220295    -1.2508448     -0.02924512   
     37300   0.45571217    -2.5018873      0.26668273    -1.5858147      0.044725409  
     37400   0.33968449    -2.3654988      0.19082621    -1.6906221      0.019879447  
     37500   0.61321855    -2.6056746      0.16888783    -1.5629503      0.028806514  
     37600   0.41033671    -2.3082348      0.20755287    -1.5159521     -0.017963087  
     37700   0.53051009    -2.2283942      0.23982136    -1.232596      -0.064066158  
     37800   0.65091038    -2.3786812      0.3902584     -1.0608755     -0.061016067  
     37900   0.48779814    -2.1514061      0.19593718    -1.2603566     -0.040860664  
     38000   0.44532423    -2.1536983      0.1888422     -1.3302691      0.018249484  
     38100   0.47865118    -2.0936138      0.26313163    -1.1484042      0.022038815  
     38200   0.67561743    -2.1500318      0.2759676     -0.91130934    -0.0091253538 
     38300   0.60037003    -2.1628797      0.28819872    -1.0191537      0.025822485  
     38400   0.65104757    -2.3738132      0.2796129     -1.1664575     -0.014753859  
     38500   0.45974999    -2.5523332      0.42576885    -1.4714206     -0.015791873  
     38600   0.39179305    -2.4184097      0.26733899    -1.5927656     -0.050155308  
     38700   0.56509331    -2.5630798      0.204352      -1.5534698     -0.0082429744 
     38800   0.45906235    -2.3761648      0.23478767    -1.4872133      0.0045840608 
     38900   0.66339583    -2.3362486      0.24978652    -1.141123       0.030251706  
     39000   0.55672271    -2.2728511      0.28706184    -1.1924594      0.0049235686 
     39100   0.4983197     -2.4047532      0.24394001    -1.4507076     -0.012628403  
     39200   0.40708741    -2.2603845      0.1501153     -1.5301696     -0.043247228  
     39300   0.59390546    -2.4250286      0.12718244    -1.4515309     -0.0028836458 
     39400   0.63673061    -2.4850956      0.13764354    -1.4401109      0.033571324  
     39500   0.42255921    -2.5919588      0.18185792    -1.807954       0.022353347  
     39600   0.45425479    -2.6557424      0.085143784   -1.9232856     -0.00068412143
     39700   0.53932199    -2.7895443      0.18326556    -1.8377449      0.025112501  
     39800   0.42172096    -2.7397354      0.31959888    -1.8191842      0.0049692467 
     39900   0.58423087    -2.6615001      0.21039356    -1.6185775     -0.014585439  
     40000   0.63878148    -2.4227313      0.11787315    -1.3945945     -0.016364642  
     40100   0.55090463    -2.5502883      0.28858355    -1.4766656      0.056515643  
     40200   0.37989406    -2.5545137      0.22171333    -1.7914514     -0.043413254  
     40300   0.56550253    -2.9083271      0.23246566    -1.8700203     -0.019556763  
     40400   0.54653676    -3.0044238      0.21771838    -2.0078905     -0.004347669  
     40500   0.41867418    -2.8584783      0.18538926    -2.0764783     -0.0038011479 
     40600   0.40845793    -2.7458069      0.20314108    -1.9606132      0.067051664  
     40700   0.5250763     -2.9181624      0.30590914    -1.8640196      0.050159512  
     40800   0.50010241    -2.9084313      0.29738722    -1.8983981      0.018549045  
     40900   0.39821689    -2.8148543      0.19581431    -2.0515809     -0.039175538  
     41000   0.45466637    -2.9030342      0.19877604    -2.0563586      0.046528073  
     41100   0.38520925    -2.8622722      0.21278536    -2.1005637     -0.038095102  
     41200   0.47825406    -3.0426901      0.30277026    -2.0584078     -0.015925609  
     41300   0.52760844    -2.9695846      0.36413722    -1.8536054      0.045749851  
     41400   0.49907943    -2.7313458      0.25452274    -1.7656348      0.078437186  
     41500   0.43858824    -2.866305       0.22006522    -2.0212515     -0.0075135757 
     41600   0.35904615    -2.8232155      0.12528098    -2.1862937      0.046758206  
     41700   0.45597628    -2.8607469      0.13328532    -2.0776954      0.035872     
     41800   0.50751478    -2.9061043      0.2460278     -1.936868       0.011027502  
     41900   0.35834106    -2.8123179      0.41825587    -1.883426      -0.032514079  
     42000   0.49504218    -2.893261       0.37061181    -1.8172141     -0.048080723  
     42100   0.49691269    -2.8695647      0.22244041    -1.9390237     -0.0055040798 
     42200   0.47706368    -2.9776803      0.099726251   -2.1981383      0.015921903  
     42300   0.40369403    -2.97965        0.19875456    -2.2056314      0.017194401  
     42400   0.53537828    -3.0037777      0.28991252    -1.9509511      0.027406834  
     42500   0.49686238    -2.7864391      0.26385908    -1.8145512     -0.010012042  
     42600   0.49485116    -2.7256178      0.29077888    -1.729676      -0.018506677  
     42700   0.57702988    -2.7485284      0.19020285    -1.736058      -0.073784806  
     42800   0.50973433    -2.7094827      0.20323777    -1.7798735     -0.02388788   
     42900   0.49745788    -2.7394907      0.21737086    -1.8132423      0.026440299  
     43000   0.53136911    -2.8909568      0.23237346    -1.9013823      0.039894096  
     43100   0.31590449    -2.6902575      0.24249911    -1.9975945      0.0094960039 
     43200   0.62144458    -2.8904299      0.19904943    -1.805822       0.079958554  
     43300   0.42727327    -2.717628       0.15625939    -1.9525042     -0.020843242  
     43400   0.55180645    -2.9618898      0.12671271    -2.0488529      0.021157762  
     43500   0.32455795    -2.7558507      0.19349873    -2.0998568     -0.0078994573 
     43600   0.45508023    -2.7075664      0.23689793    -1.8221792     -0.050540083  
     43700   0.55460719    -2.8130528      0.29751533    -1.7252222     -0.013598727  
     43800   0.37991256    -2.7162022      0.29076454    -1.8840622      0.051673044  
     43900   0.39285233    -2.8147865      0.26242994    -1.9925419     -0.011257156  
     44000   0.51168223    -2.9896444      0.25275795    -2.0077392      0.041999419  
     44100   0.5329272     -2.8258572      0.21186533    -1.8545706      0.034682797  
     44200   0.59763991    -2.7102305      0.26696864    -1.591625       0.05728432   
     44300   0.60113198    -2.6972291      0.25327046    -1.5873455      0.033987614  
     44400   0.40321208    -2.7830057      0.37035126    -1.8380772     -0.0038571738 
     44500   0.39911825    -2.7470529      0.20274964    -1.9755598      0.0037121673 
     44600   0.44999362    -2.7548479      0.21406666    -1.8995404     -0.02162862   
     44700   0.55487399    -2.776052       0.17541747    -1.8099391      0.020214695  
     44800   0.54434553    -2.7075182      0.14338955    -1.7884363      0.015820327  
     44900   0.41482362    -2.5778303      0.17554746    -1.8111592      0.027674768  
     45000   0.40925477    -2.6916777      0.12365485    -1.9848348     -0.0090277098 
     45100   0.47713124    -3.0446408      0.25352641    -2.1112024      0.043012783  
     45200   0.28494798    -2.7962025      0.17163939    -2.2185123     -0.040325908  
     45300   0.69182847    -3.0927587      0.16703139    -1.9398717      0.034390248  
     45400   0.41515661    -2.6896496      0.26808435    -1.8299671      0.00058965093
     45500   0.53566478    -2.7353205      0.21800623    -1.753992      -0.0059953337 
     45600   0.63314342    -2.7507212      0.21803536    -1.6304564     -0.049989103  
     45700   0.62053016    -2.7173768      0.2705979     -1.5625234     -0.035228682  
     45800   0.48232559    -2.8432981      0.23531053    -1.9206736     -0.030376391  
     45900   0.38966446    -2.9397748      0.31144217    -2.0730608     -0.03834026   
     46000   0.53446193    -3.1378733      0.26828188    -2.1079832     -0.02411177   
     46100   0.37581411    -3.1649331      0.40954321    -2.2198548      0.029794678  
     46200   0.43071932    -3.0752176      0.19172709    -2.2697154      0.028326092  
     46300   0.5743602     -3.0905412      0.23193192    -2.040146       0.03083955   
     46400   0.4529487     -2.6432864      0.16772496    -1.8301095      0.025902577  
     46500   0.51393085    -2.8829583      0.38412519    -1.7664817     -0.039277438  
     46600   0.32555469    -2.7031241      0.31939671    -1.919812      -0.058127253  
     46700   0.37468587    -2.9455645      0.27372129    -2.1379159      0.014326219  
     46800   0.41522165    -2.9271408      0.15641956    -2.1790303     -0.028941952  
     46900   0.49794155    -2.830139       0.27647368    -1.8440986      8.0955261e-05
     47000   0.595716      -2.7214929      0.19922292    -1.6733746      0.029310188  
     47100   0.60227507    -2.8241956      0.23311375    -1.7328399     -0.062006856  
     47200   0.54747308    -2.8593724      0.19365558    -1.8855677      0.010198194  
     47300   0.38812927    -2.8207445      0.27260496    -1.9950553      0.04272657   
     47400   0.32578869    -2.7656774      0.17650262    -2.1249259      0.027305478  
     47500   0.43487575    -2.8955358      0.21159071    -2.0642471      0.051842542  
     47600   0.57988966    -2.9189548      0.29357813    -1.7990339      0.012513636  
     47700   0.57616479    -2.7170069      0.15989483    -1.7360773      0.0072027448 
     47800   0.65019785    -2.9327323      0.34170521    -1.6644951     -0.0079351587 
     47900   0.54123681    -2.9911656      0.30208102    -1.9178221     -0.012352655  
     48000   0.47767797    -3.0453239      0.20055934    -2.1640735     -0.0098007361 
     48100   0.48958703    -2.9133608      0.082272251   -2.1334271      0.023319075  
     48200   0.61964827    -2.9744507      0.18272189    -1.90873        0.048086219  
     48300   0.47495957    -2.8293618      0.29850884    -1.8540356      0.023378417  
     48400   0.52164983    -2.7307556      0.36310018    -1.6243045      0.019439892  
     48500   0.65285984    -2.6458913      0.27473736    -1.4408287     -0.043732418  
     48600   0.45812191    -2.7208469      0.34170827    -1.7263149     -0.031407955  
     48700   0.37429614    -2.8539081      0.39086594    -1.9296701      0.017262533  
     48800   0.3805832     -2.8136599      0.28506436    -1.9862645     -0.035016938  
     48900   0.5490684     -2.9609748      0.28656894    -1.8919834     -0.055459513  
     49000   0.44971379    -2.7889772      0.28738558    -1.8607495     -0.031311029  
     49100   0.56973895    -2.7465268      0.18901116    -1.7456376     -0.0075304476 
     49200   0.54089502    -2.7829484      0.4348839     -1.5772891     -0.056154683  
     49300   0.49325475    -2.8000923      0.37271595    -1.7244883      0.038447591  
     49400   0.3197728     -2.7348817      0.3225016     -1.9567039     -0.010648758  
     49500   0.46016961    -2.7251706      0.19778348    -1.8716454      0.0042896598 
     49600   0.59993337    -2.940038       0.28366831    -1.8014646      0.049606201  
     49700   0.57892775    -2.9182852      0.16153231    -1.9317809      0.014659262  
     49800   0.41300882    -2.8826626      0.29225667    -2.0018684      0.022645544  
     49900   0.38936438    -2.7008677      0.16490393    -1.9811196      0.0031262666 
     50000   0.48223617    -2.6070717      0.12832623    -1.791559       0.070558627  
     50100   0.47347867    -2.516509       0.25854792    -1.583254      -0.031816878  
     50200   0.71225855    -2.6842302      0.25135481    -1.417907      -0.022040935  
     50300   0.50840157    -2.5352444      0.2090969     -1.6016753      0.0033412911 
     50400   0.40502582    -2.624047       0.24379269    -1.8030925     -0.0040440177 
     50500   0.48335558    -2.9326289      0.35102177    -1.8928255      0.098896888  
     50600   0.3219474     -2.9004429      0.29115521    -2.1505126      0.055031649  
     50700   0.46688965    -3.0902847      0.19112016    -2.2338468      0.03488972   
     50800   0.27078056    -2.7955323      0.25762976    -2.1520402      0.01501893   
     50900   0.45442805    -2.8974585      0.25117858    -1.99872       -0.014928087  
     51000   0.4570452     -2.7666184      0.21047161    -1.9048574     -0.0059704255 
     51100   0.60161965    -2.9726354      0.27760702    -1.8377204      0.020081221  
     51200   0.53718324    -2.8410242      0.19841241    -1.8771257     -0.035521378  
     51300   0.58480827    -3.0450728      0.17477035    -2.0369507      0.040025581  
     51400   0.32897741    -2.9091274      0.16112984    -2.2792047      0.029943048  
     51500   0.419932      -2.9630135      0.16343169    -2.2011788      0.022222303  
     51600   0.35046322    -2.7079667      0.20610629    -2.0024503     -0.028393183  
     51700   0.57134703    -2.913905       0.2333867     -1.8663488      0.023154332  
     51800   0.47495015    -2.876062       0.23796856    -1.9612895     -0.003991699  
     51900   0.36878915    -2.7107038      0.1235076     -2.0616717      0.020195368  
     52000   0.49835903    -2.7023913      0.1830338     -1.8091959      0.030923622  
     52100   0.57624671    -2.7616229      0.27604547    -1.6644259     -0.0018109677 
     52200   0.52415348    -2.7616438      0.17864621    -1.8360789      0.016297445  
     52300   0.43098424    -2.7575951      0.13916987    -2.0042727      0.027758171  
     52400   0.45154764    -2.7927505      0.18805754    -1.9612375      0.041227359  
     52500   0.70289246    -2.9157376      0.23788573    -1.6762302      0.025825605  
     52600   0.67331002    -2.6335512      0.29079331    -1.3832911     -0.0064816238 
     52700   0.3866911     -2.6547665      0.3728124     -1.7309193     -0.03374764   
     52800   0.455618      -2.6843709      0.18127627    -1.853839       0.041429438  
     52900   0.33450164    -2.6828309      0.32314734    -1.8830187      0.023031427  
     53000   0.56012435    -2.7954743      0.31962455    -1.6776726      0.030095074  
     53100   0.48161625    -2.6227258      0.30064937    -1.6357733     -0.024756337  
     53200   0.38686814    -2.4481315      0.21725909    -1.6795853     -0.00015682095
     53300   0.71127943    -2.6781408      0.23331397    -1.4312536     -0.0081038806 
     53400   0.51396227    -2.4355832      0.26002281    -1.4431641      0.013626213  
     53500   0.50296241    -2.5587492      0.16301003    -1.6790177     -0.027310702  
     53600   0.55405137    -2.6909435      0.059724914   -1.8416954     -0.018943559  
     53700   0.41619249    -2.6113763      0.13622754    -1.8820745      0.0083153888 
     53800   0.68230465    -2.7618398      0.26096862    -1.5285871      0.0098393816 
     53900   0.53099886    -2.6340932      0.34015656    -1.5372633     -0.023473458  
     54000   0.54666125    -2.7971412      0.26532213    -1.7528268      0.0092739393 
     54100   0.50066783    -2.8705037      0.24793953    -1.9091125     -0.034791009  
     54200   0.48942911    -2.8911464      0.17083483    -2.022875      -0.011560766  
     54300   0.40245035    -2.7990607      0.2044925     -2.0210764     -0.014371822  
     54400   0.50716029    -2.8326986      0.44557517    -1.66442        0.046464523  
     54500   0.51438976    -2.8143954      0.40516487    -1.6762251      0.054235588  
     54600   0.34575525    -2.5845896      0.29425902    -1.7976293      0.081650715  
     54700   0.45405564    -2.8207751      0.32834939    -1.8453965      0.043673912  
     54800   0.31777097    -2.6539403      0.14290718    -2.0582094     -0.050991291  
     54900   0.4638873     -2.9166336      0.23171575    -2.0238785      0.0024130786 
     55000   0.50525443    -2.7053219      0.22584367    -1.7594907     -0.038622608  
     55100   0.53436759    -2.626702       0.26123613    -1.6039921     -0.068006803  
     55200   0.56826255    -2.8940962      0.48122605    -1.603096       0.0082583984 
     55300   0.39484906    -2.7019471      0.35036914    -1.788918       0.017848625  
     55400   0.51233864    -2.7260101      0.10174791    -1.8941796      0.014907066  
     55500   0.35652964    -2.7498596      0.36190877    -1.8798961     -0.078845665  
     55600   0.55160088    -2.8355461      0.24799935    -1.8015155     -0.012151235  
     55700   0.56513219    -2.7306241      0.13248181    -1.7928289     -0.022734466  
     55800   0.57306471    -2.7054379      0.13973605    -1.7490846      0.068240185  
     55900   0.41953038    -2.5947634      0.15255364    -1.844379       0.0049866411 
     56000   0.53212939    -2.6934174      0.15021906    -1.784914      -0.01566219   
     56100   0.65313849    -2.8399627      0.25243635    -1.656804      -0.012446075  
     56200   0.46479047    -2.5945161      0.10323568    -1.828954      -0.044477599  
     56300   0.51171223    -2.906854       0.22788913    -1.9497749      0.021302469  
     56400   0.32834258    -2.7929841      0.11946968    -2.2056262     -0.020204261  
     56500   0.43773609    -2.9534302      0.13059764    -2.1990586      0.022277197  
     56600   0.41984033    -2.6281561      0.13510883    -1.8947748     -0.013197912  
     56700   0.37927455    -2.5295187      0.25175726    -1.7372952     -0.0089892436 
     56800   0.41784899    -2.3470103      0.18800386    -1.5635716     -0.024343129  
     56900   0.49814268    -2.4155959      0.39208487    -1.3136577     -0.01172403   
     57000   0.51858419    -2.3059381      0.30261312    -1.2643425     -0.060215635  
     57100   0.63438497    -2.4816353      0.19175497    -1.3858817     -0.038826106  
     57200   0.49768893    -2.8329352      0.30861798    -1.8151105     -0.042150741  
     57300   0.4558844     -2.7605337      0.22260482    -1.8882936     -0.036520773  
     57400   0.45811464    -2.6159937      0.10529511    -1.8578852     -0.032697393  
     57500   0.64652253    -2.6791247      0.15377376    -1.6040563      0.024280875  
     57600   0.51947927    -2.3674071      0.13570776    -1.4914414      0.030759768  
     57700   0.6074603     -2.679388       0.21436614    -1.5993909     -0.037741859  
     57800   0.4937419     -2.8867996      0.33818819    -1.8450292     -0.062314205  
     57900   0.4797428     -2.7595491      0.17865283    -1.8972628     -0.076924792  
     58000   0.46943776    -2.8112426      0.26507205    -1.8772217     -0.018707269  
     58100   0.4516105     -2.7692979      0.2300537     -1.8956993     -0.020634673  
     58200   0.49198228    -2.840167       0.22053375    -1.9185586     -0.018191483  
     58300   0.45357715    -2.8348001      0.1546822     -2.0337705      0.0039316336 
     58400   0.54699738    -2.9644691      0.14098444    -2.0440134      0.075018782  
     58500   0.47651683    -2.9652017      0.30685363    -1.9793116      0.0079194011 
     58600   0.56413186    -2.9565278      0.29251595    -1.8601239      0.024419185  
     58700   0.54177183    -2.7896302      0.40440097    -1.6132044      0.013949077  
     58800   0.64449627    -2.7516626      0.38572245    -1.4475329      0.11946993   
     58900   0.42841271    -2.505387       0.12203806    -1.7728608     -0.0077517114 
     59000   0.5270159     -2.7461727      0.15587376    -1.8393012      0.0036356082 
     59100   0.54916672    -3.0611181      0.24594469    -2.0326108     -0.026919879  
     59200   0.51031835    -3.1322013      0.21096447    -2.1940332      0.030920584  
     59300   0.41056932    -2.9245329      0.1285008     -2.2109708      0.022563432  
     59400   0.66926312    -3.0750473      0.16047211    -1.9608752     -0.010665585  
     59500   0.67741631    -2.9570969      0.16163863    -1.83014       -0.0030857575 
     59600   0.53009603    -2.8412598      0.21387007    -1.8720029      0.01195017   
     59700   0.48224097    -2.9447636      0.35518284    -1.9023874     -0.031556157  
     59800   0.52056904    -3.0356452      0.2349694     -2.0588649      0.040535675  
     59900   0.37092074    -2.991674       0.12898129    -2.3341306     -0.0017927711 
     60000   0.42359493    -3.0789359      0.18260824    -2.2927048      0.051979705  
     60100   0.50449322    -3.1084864      0.21738777    -2.1721958      0.0078661026 
     60200   0.54389224    -3.0966531      0.20624306    -2.1153636      0.025719662  
     60300   0.34471141    -2.7628392      0.19766827    -2.0739571     -0.027577166  
     60400   0.54135595    -2.8841845      0.16047451    -1.9522777      0.12013466   
     60500   0.46953856    -2.8444612      0.2288478     -1.9465209      0.04292565   
     60600   0.55829887    -3.0488919      0.27044623    -1.9828698      0.074493764  
     60700   0.40006938    -2.8603291      0.21733462    -2.0728956     -0.042443015  
     60800   0.61776785    -3.1703168      0.2419436     -2.048054      -0.04377822   
     60900   0.50454624    -3.0893622      0.25163337    -2.1187505      0.0024140182 
     61000   0.53240456    -3.2196517      0.19499314    -2.2659821      0.013157735  
     61100   0.42269763    -3.0677277      0.10041261    -2.364971       0.0065076515 
     61200   0.67002233    -3.2017242      0.092620479   -2.1543219      0.011702328  
     61300   0.55090233    -2.7266518      0.14511621    -1.7964997     -0.049205089  
     61400   0.48822881    -2.7044513      0.29517667    -1.7135485     -0.067765452  
     61500   0.55116055    -2.6612102      0.32358691    -1.5522195     -0.079718125  
     61600   0.78366903    -2.9030372      0.3669689     -1.41934       -0.019977203  
     61700   0.51028239    -3.0527469      0.31946984    -2.0061247     -0.080232788  
     61800   0.44455108    -3.1110881      0.21826697    -2.2593359     -0.050944573  
     61900   0.48588471    -3.3095528      0.26521624    -2.3519509     -0.037801711  
     62000   0.42406347    -3.2049879      0.1811148     -2.4195826     -0.052538767  
     62100   0.40782164    -3.1039022      0.21118819    -2.3115682     -0.091187861  
     62200   0.51243269    -3.0417971      0.29817397    -2.0134066     -0.079059885  
     62300   0.61488413    -3.1309081      0.19008944    -2.0646087      0.083750818  
     62400   0.38905506    -3.0431746      0.26456332    -2.2242078      0.074380884  
     62500   0.44878136    -3.10486        0.24172694    -2.2236196      0.04191292   
     62600   0.56619081    -3.1866378      0.16497104    -2.2148449      0.048238357  
     62700   0.38192291    -3.1442919      0.18967155    -2.4103802     -0.0118731    
     62800   0.41112195    -3.2568078      0.19240825    -2.4785507     -0.0017194077 
     62900   0.54995333    -3.2357009      0.15961525    -2.2924021      0.017951847  
     63000   0.50870253    -3.0297867      0.2144203     -2.0904652     -0.020230719  
     63100   0.65877662    -3.1469433      0.28794634    -1.9202403      0.032011551  
     63200   0.61851596    -3.0693662      0.17707943    -2.0109015     -0.091331221  
     63300   0.49082677    -3.1605083      0.35748342    -2.1035967     -0.072354093  
     63400   0.41343393    -3.0778391      0.23103463    -2.2576611      0.0037835552 
     63500   0.54081737    -3.2460645      0.17308265    -2.3023171      0.027633406  
     63600   0.51054975    -3.1685595      0.18648919    -2.2545369     -0.02630289   
     63700   0.45221829    -2.9660782      0.31157125    -2.0100959     -0.022946301  
     63800   0.77371698    -3.055284       0.14150281    -1.8112345     -0.029253361  
     63900   0.53099367    -2.9855038      0.20736434    -2.0214735      0.0003521656 
     64000   0.47157522    -3.0277736      0.15121237    -2.2045665      0.022106864  
     64100   0.52066846    -3.1470654      0.15473534    -2.2503775     -0.0014726672 
     64200   0.50946132    -3.1626753      0.21019762    -2.2264953     -0.031984158  
     64300   0.57746477    -3.2307684      0.16320075    -2.2446803     -0.010976158  
     64400   0.52958564    -3.2089882      0.18405597    -2.2702727     -0.0089586747 
     64500   0.40374122    -3.1246745      0.26294256    -2.2864007      0.019931939  
     64600   0.53044907    -3.145383       0.27768805    -2.111805       0.05292091   
     64700   0.52814471    -2.9413545      0.27239967    -1.9163486     -0.032535847  
     64800   0.54083373    -3.0884761      0.21451064    -2.1032774     -0.05770699   
     64900   0.33439237    -3.1088591      0.29381875    -2.3385312     -0.040394699  
     65000   0.41063811    -3.1288099      0.23138063    -2.31227       -0.035196828  
     65100   0.49994446    -3.1793484      0.20218828    -2.2647392     -0.018442505  
     65200   0.48335104    -3.1457487      0.26297867    -2.1939947     -0.051473797  
     65300   0.69949028    -3.1527934      0.25686048    -1.8991593     -0.059465413  
     65400   0.53663518    -2.9862373      0.34826828    -1.8732639     -0.055610778  
     65500   0.48669613    -3.0608317      0.15398642    -2.2133033     -0.0025644053 
     65600   0.45663042    -3.1941045      0.19457651    -2.3488296      0.037114733  
     65700   0.42988287    -3.2127296      0.21726415    -2.3828824     -0.041211561  
     65800   0.40333994    -3.0104279      0.13045921    -2.3052093     -0.039813921  
     65900   0.40911483    -2.8178912      0.27840427    -1.9564983     -0.026852534  
     66000   0.55143207    -2.8806502      0.25609594    -1.8387636     -0.011138141  
     66100   0.50059492    -2.8662016      0.23360887    -1.919245      -0.0060630174 
     66200   0.58020686    -3.1808101      0.22749723    -2.1265181     -0.024929684  
     66300   0.37501106    -3.2042031      0.24940914    -2.4204032      0.0031893545 
     66400   0.46206519    -3.2505939      0.22067626    -2.3714747     -0.005615892  
     66500   0.51858291    -3.2033074      0.19200231    -2.2723244     -0.00093942743
     66600   0.54980886    -3.2656765      0.32797534    -2.1542235      0.047260192  
     66700   0.72810808    -3.135015       0.26897673    -1.8284842     -0.0035056984 
     66800   0.66949472    -3.0005798      0.35108349    -1.6954663      0.0080366553 
     66900   0.38394319    -2.9142261      0.27045107    -2.096656       0.0033405563 
     67000   0.51971927    -3.2622945      0.32623535    -2.1954592     -0.0093921435 
     67100   0.51588061    -3.2410524      0.21297792    -2.2929446      0.013845894  
     67200   0.4362661     -3.3159348      0.31491079    -2.3793448      0.063264473  
     67300   0.42859017    -3.2122804      0.17626524    -2.4252742      0.017957378  
     67400   0.54879645    -3.2009178      0.14088495    -2.2779979      0.033517192  
     67500   0.60702885    -3.1365758      0.20533756    -2.0662221     -0.016247463  
     67600   0.46240047    -2.8739325      0.19448093    -2.0205309      0.05028613   
     67700   0.71937806    -3.0639227      0.21012915    -1.8286798      0.077556944  
     67800   0.63721059    -2.8529936      0.17008752    -1.774881       0.00063867013
     67900   0.6567744     -3.1170313      0.17576119    -2.0053666     -0.071819487  
     68000   0.69508029    -3.396091       0.10995088    -2.2956507      0.0022884736 
     68100   0.3577212     -3.2144817      0.24222925    -2.4624998      0.013897993  
     68200   0.38621518    -3.0514268      0.13274338    -2.3683268      0.03869438   
     68300   0.52325984    -3.0366612      0.15577725    -2.1352387     -0.02714907   
     68400   0.41632554    -3.0529856      0.35965029    -2.1000714     -0.052853936  
     68500   0.49181275    -3.0900802      0.24101371    -2.1482333     -0.06489795   
     68600   0.43548398    -2.9463573      0.1607018     -2.1650909     -0.031082059  
     68700   0.53427885    -3.096049       0.15621653    -2.1784851      0.02827219   
     68800   0.51402164    -3.1373667      0.11989852    -2.2849874      0.029046907  
     68900   0.50930276    -3.2134713      0.2395011     -2.2482137      0.027214127  
     69000   0.44513627    -2.9098247      0.1681758     -2.1073297     -0.037539448  
     69100   0.61367564    -3.1295493      0.39625831    -1.8588032      0.00149561   
     69200   0.50107521    -3.1116484      0.31829071    -2.0793255      0.0067589011 
     69300   0.51593186    -3.18835        0.28958773    -2.1635593     -0.011142504  
     69400   0.57321914    -3.4082014      0.3234129     -2.2679512      0.06433565   
     69500   0.42983443    -3.2106393      0.20643544    -2.3916898     -0.00704417   
     69600   0.45195729    -3.3134206      0.35856228    -2.3108191      0.0042841891 
     69700   0.4887222     -3.2295944      0.28953147    -2.2436338     -0.036023858  
     69800   0.42935216    -2.9989679      0.14318927    -2.2439518      0.012358799  
     69900   0.46149225    -3.0561494      0.22727437    -2.1712485     -0.046034847  
     70000   0.58292295    -3.0691808      0.20693721    -2.0315784      0.018012615  
     70100   0.72485271    -3.1243228      0.16177563    -1.9296321      0.059295704  
     70200   0.49550558    -3.0077168      0.16181446    -2.1398069     -0.011723309  
     70300   0.514574      -3.2968301      0.20178818    -2.361774       0.02455933   
     70400   0.4184792     -3.1883232      0.14958188    -2.4424084     -0.0061680496 
     70500   0.56795583    -3.2654887      0.19019665    -2.2659549     -0.01454083   
     70600   0.70127115    -3.0393578      0.19562465    -1.8444218      0.019113817  
     70700   0.45892219    -2.7655314      0.22011099    -1.8914563     -0.043510715  
     70800   0.41545122    -2.8340295      0.35727028    -1.8847412      0.026904478  
     70900   0.58679115    -2.7682625      0.15990459    -1.7721805      0.0069073595 
     71000   0.63971378    -2.7437152      0.28388611    -1.548237       0.0067188867 
     71100   0.64753697    -2.6750229      0.30726786    -1.4450148      0.0029375238 
     71200   0.48404695    -2.8278513      0.17960306    -1.9584813     -0.018139406  
     71300   0.45458097    -2.9447539      0.19438567    -2.1025903     -0.0075408957 
     71400   0.5034115     -2.9734554      0.14042664    -2.1156674      0.063557354  
     71500   0.43235173    -2.9389217      0.19229612    -2.1305244      0.017804118  
     71600   0.73022085    -3.0930115      0.095964763   -1.956482       0.03920183   
     71700   0.45528308    -2.8867304      0.27713266    -1.9608193     -0.0098811131 
     71800   0.54560886    -2.9576194      0.16488054    -2.0152462      0.013961792  
     71900   0.47632024    -2.8921662      0.25011293    -1.9632969      0.025174915  
     72000   0.54879121    -2.9082333      0.19733423    -1.9288716      0.071733093  
     72100   0.54332364    -2.9603299      0.20052703    -1.9855666      0.069220911  
     72200   0.43709844    -2.9808261      0.14280961    -2.2151512      0.0011053916 
     72300   0.51470835    -3.1298082      0.17887623    -2.2174725      0.011485111  
     72400   0.55365403    -3.0697286      0.28549883    -1.9952728      0.0055770983 
     72500   0.76628181    -2.9424169      0.2004072     -1.6500581     -0.0022920242 
     72600   0.45784834    -2.7985155      0.39040894    -1.7556727      0.027564532  
     72700   0.50671525    -2.9314964      0.29041529    -1.9190119      0.030836841  
     72800   0.60187525    -3.1133069      0.16804171    -2.087593       0.074451397  
     72900   0.33236574    -2.9637748      0.22085083    -2.2693028      0.060456792  
     73000   0.42732876    -3.0785769      0.26878347    -2.20085        0.076059797  
     73100   0.52326462    -2.9609142      0.2264501     -1.988812       0.00031074809
     73200   0.55046796    -2.8942489      0.23746453    -1.8723675      0.0075803322 
     73300   0.64285258    -2.9310756      0.13802585    -1.8769848     -0.003453202  
     73400   0.52069838    -2.891464       0.18677208    -1.9626967      0.044271665  
     73500   0.43157022    -2.9135899      0.18475965    -2.1138426     -0.011084738  
     73600   0.55105095    -3.2044735      0.1263262     -2.2928997     -0.012882553  
     73700   0.41090704    -3.3107676      0.16667557    -2.5585495     -0.037144127  
     73800   0.42361764    -3.2648371      0.15355327    -2.5076287     -0.015252453  
     73900   0.41211758    -3.2351169      0.33825679    -2.3095925     -0.053543699  
     74000   0.4951729     -3.1886297      0.28393537    -2.199073       0.0084567931 
     74100   0.42398547    -3.0102183      0.25230079    -2.1537382      0.028560889  
     74200   0.48535277    -2.9626131      0.23275224    -2.0382332      0.01011642   
     74300   0.64836981    -2.87138        0.24186369    -1.7055893      0.043054197  
     74400   0.47902675    -2.6771581      0.28361995    -1.710925       0.00086890985
     74500   0.52090119    -2.8335549      0.36366015    -1.7276106     -0.0089359522 
     74600   0.54196947    -2.928157       0.31515897    -1.8406915     -0.068028684  
     74700   0.44438967    -2.9921212      0.24380681    -2.1150591     -0.0080940358 
     74800   0.43200062    -2.8762205      0.12805206    -2.1325675     -0.043476064  
     74900   0.53600944    -2.9512306      0.19494141    -1.9924757      0.013921692  
     75000   0.48874601    -2.7044282      0.14091436    -1.8670508      0.0054690709 
     75100   0.56775023    -2.9489032      0.25234919    -1.8875099     -0.039534834  
     75200   0.4500053     -3.0904185      0.15980617    -2.2893548     -0.04024258   
     75300   0.39300417    -3.1570302      0.24472513    -2.3522741      0.056281683  
     75400   0.43370071    -3.1287352      0.19184153    -2.3188701      0.030507715  
     75500   0.57796852    -3.2409503      0.36443112    -2.052914      -0.013886525  
     75600   0.51901171    -3.1417307      0.3833662     -2.0187728     -0.035802889  
     75700   0.57394848    -3.1644462      0.28218811    -2.0643815     -0.0077684846 
     75800   0.61550384    -3.1692373      0.1498228     -2.1423215      0.054255772  
     75900   0.36584565    -3.1024879      0.38375689    -2.197401      -0.030058006  
     76000   0.69741434    -3.3526525      0.216008      -2.1428291      0.041343949  
     76100   0.39712354    -3.1135727      0.29658356    -2.2510881      0.023682265  
     76200   0.46142747    -3.0949201      0.23955156    -2.1978344      0.046623999  
     76300   0.78386204    -3.1884915      0.17592751    -1.8955606      0.0037022342 
     76400   0.41592867    -2.8001653      0.18573034    -2.0217366     -0.031714267  
     76500   0.40239923    -2.8926139      0.13938422    -2.1798108      0.0158323    
     76600   0.4413098     -3.1154907      0.15389904    -2.3327252     -0.0015427946 
     76700   0.46558573    -3.2442477      0.090234552   -2.4905535      0.0022265149 
     76800   0.40293722    -3.2016999      0.15079419    -2.4767202     -0.022450667  
     76900   0.38848058    -2.911943       0.16145776    -2.1969004     -0.051684308  
     77000   0.46518517    -2.8284183      0.17447366    -1.9910558      0.085126846  
     77100   0.56064018    -2.9365317      0.25096168    -1.8866578     -0.015677637  
     77200   0.45975658    -2.9229196      0.27247632    -1.9952902     -0.01818525   
     77300   0.46808539    -3.0505973      0.12822029    -2.2553554      0.023520961  
     77400   0.46893192    -3.1358412      0.16932403    -2.2982892      0.059027846  
     77500   0.45342258    -3.0828232      0.16362321    -2.2730728      0.038901872  
     77600   0.61958864    -3.1591226      0.081887153   -2.1943217     -0.0034851384 
     77700   0.5352058     -3.1163022      0.23045574    -2.1231782     -0.040543419  
     77800   0.43184482    -3.0290744      0.28876779    -2.1249278      0.029512024  
     77900   0.53979139    -3.0061188      0.12048123    -2.1164348      0.032908131  
     78000   0.39602241    -2.8557926      0.17717175    -2.1142889      0.038584496  
     78100   0.69581766    -3.1777407      0.3214139     -1.8647866      0.0233099    
     78200   0.47303556    -2.9129264      0.14437316    -2.0944776     -1.654562e-05 
     78300   0.38791855    -2.9687002      0.14743151    -2.2684848      0.064694365  
     78400   0.30802531    -2.9213311      0.22926122    -2.2531339      0.023854827  
     78500   0.41012119    -2.8344465      0.13723291    -2.1127909     -0.020138139  
     78600   0.38869853    -2.7821215      0.23916778    -1.9890583     -0.028407612  
     78700   0.57776651    -2.8779419      0.17199051    -1.8826341      0.027858174  
     78800   0.58343933    -2.9577801      0.3328278     -1.7935513     -0.033491267  
     78900   0.78141457    -2.8994592      0.15435734    -1.6315861     -0.030444382  
     79000   0.4639286     -2.7846386      0.35063484    -1.7729055     -0.0087204939 
     79100   0.51519828    -3.0141185      0.28507432    -1.9948866      0.051834929  
     79200   0.52147775    -3.1693891      0.21937292    -2.2069104     -0.015489265  
     79300   0.40942274    -3.0521329      0.14426313    -2.3244423      0.018850229  
     79400   0.49923934    -3.1621573      0.17350533    -2.2772359     -0.021872014  
     79500   0.44357969    -3.1804318      0.3504193     -2.1979114      0.0034462493 
     79600   0.56365659    -3.0672371      0.15585985    -2.1081666     -0.020390883  
     79700   0.51781415    -3.108828       0.27296732    -2.0979755      0.021352798  
     79800   0.50393823    -3.223117       0.22044294    -2.284562       0.080937485  
     79900   0.45521944    -3.383217       0.20772017    -2.5268092      0.027925224  
     80000   0.42362404    -3.2982555      0.1771843     -2.5174069      0.012738423  
     80100   0.4189251     -3.0742228      0.14602254    -2.331232       0.023669674  
     80200   0.59882712    -3.2608608      0.16094386    -2.2465883      0.036692765  
     80300   0.54181476    -3.2884483      0.30485968    -2.2115026      0.053646373  
     80400   0.51507301    -2.9746029      0.11490583    -2.1257181      0.0090439969 
     80500   0.52851377    -2.9980543      0.25214186    -1.9927803     -0.015907064  
     80600   0.54708026    -2.9207562      0.29551299    -1.8456539     -0.044847407  
     80700   0.73392837    -2.9132022      0.22314467    -1.6442096      0.00015109597
     80800   0.66599536    -2.9779315      0.11889162    -1.9099965     -0.024469112  
     80900   0.44546195    -3.0391362      0.20221843    -2.2021345      0.0024600307 
     81000   0.50263491    -3.1556156      0.16645339    -2.2729074      0.036350772  
     81100   0.39990687    -3.059193       0.14532915    -2.3439966     -0.028343623  
     81200   0.54225945    -3.065511       0.21774748    -2.0750438     -0.040023602  
     81300   0.55642365    -2.9859034      0.26060158    -1.9323981     -0.029795966  
     81400   0.54256343    -3.0973391      0.28310368    -2.0410825      0.02294261   
     81500   0.50107186    -3.1406088      0.26180149    -2.1647799      0.047771573  
     81600   0.36738373    -3.0124785      0.15925643    -2.3297002      0.021603543  
     81700   0.4022396     -3.1880849      0.1123102     -2.5025832     -0.074081443  
     81800   0.33706849    -3.2241592      0.12695302    -2.6168836     -0.01864105   
     81900   0.35951436    -3.2321871      0.2884887     -2.4313904      0.051670491  
     82000   0.53337206    -3.1395311      0.18881805    -2.1906578      0.0021045669 
     82100   0.62411274    -3.1383793      0.16250337    -2.0865152     -0.02235816   
     82200   0.4662631     -3.0231048      0.22234998    -2.1363299     -0.047709001  
     82300   0.35400387    -3.0824309      0.30375525    -2.2742201     -0.030503605  
     82400   0.41540907    -3.0303666      0.21994278    -2.2184659      0.034912316  
     82500   0.6561596     -3.0519724      0.16455631    -1.9523886      0.049173401  
     82600   0.52742949    -2.8672614      0.16336052    -1.9523138     -0.08781016   
     82700   0.48426971    -2.9091233      0.20519021    -2.0138487     -0.02189168   
     82800   0.51681764    -2.9552697      0.16069334    -2.0581112      0.010623269  
     82900   0.54899483    -3.0251357      0.099864299   -2.1429538      0.023203756  
     83000   0.51047773    -3.188061       0.14618154    -2.3144487      0.024624738  
     83100   0.44358237    -3.2813286      0.23228036    -2.4169433      0.047774718  
     83200   0.5040317     -3.0942426      0.13090056    -2.2450969      0.040185039  
     83300   0.54218093    -2.9585123      0.20447336    -1.9814312      0.0013922932 
     83400   0.41820987    -2.7045629      0.16879902    -1.9398149     -0.035832086  
     83500   0.41271313    -2.8093413      0.35085335    -1.8703717      0.021110552  
     83600   0.5081397     -3.0767238      0.23335689    -2.1192678      0.043031812  
     83700   0.34409193    -3.2384596      0.29428906    -2.4538395      0.075273437  
     83800   0.43876519    -3.1582883      0.12462685    -2.408421       0.0097249284 
     83900   0.49229851    -3.0731049      0.1886045     -2.182975      -0.040463141  
     84000   0.6298316     -3.2595649      0.35768434    -2.0043705     -0.0043530154 
     84100   0.52956091    -3.0604768      0.15161489    -2.1542376     -0.023082579  
     84200   0.44918285    -3.051517       0.19205101    -2.2193805      0.028050176  
     84300   0.7757842     -3.339733       0.20550016    -2.0287404      0.064504768  
     84400   0.62314227    -3.0370817      0.26329957    -1.8858044     -0.015453669  
     84500   0.55215475    -2.851696       0.20409267    -1.8607828      0.037633563  
     84600   0.57415056    -3.0256905      0.2902862     -1.9172397      0.030833903  
     84700   0.44635419    -3.1157223      0.23305122    -2.2466163      0.042276052  
     84800   0.38814485    -3.0698537      0.14578554    -2.3709617      0.05010192   
     84900   0.43340675    -3.1711042      0.2669764     -2.2865232      0.0079447374 
     85000   0.59922334    -3.1796436      0.24508075    -2.0806696      0.00075538474
     85100   0.52559073    -2.7560064      0.16685432    -1.8401853     -0.054618019  
     85200   0.57121965    -2.6357356      0.2778263     -1.5439213      0.01126366   
     85300   0.63572739    -2.8528042      0.29386324    -1.6530294     -0.020846765  
     85400   0.57613244    -2.8812974      0.14538043    -1.9149282      0.012161126  
     85500   0.53415746    -3.1954616      0.27540084    -2.1588863     -0.043337833  
     85600   0.49607014    -3.2715435      0.22321097    -2.3414325      0.018821297  
     85700   0.4097196     -3.1909177      0.27110999    -2.3359573      0.033695317  
     85800   0.44564564    -3.1165045      0.26203743    -2.2194221     -0.016180429  
     85900   0.37361931    -2.9632858      0.31732838    -2.1135499     -0.021426802  
     86000   0.56159315    -2.7451148      0.2805089     -1.6643356      0.039769002  
     86100   0.38196022    -2.7019506      0.47826835    -1.6793889      0.05672173   
     86200   0.51363708    -2.9604144      0.40833306    -1.8201485      0.022698916  
     86300   0.43804719    -3.0803961      0.28336853    -2.1728103     -0.064213313  
     86400   0.51150008    -3.3054036      0.30695611    -2.2695599     -0.029768355  
     86500   0.3338739     -3.0879121      0.26924861    -2.3428932     -0.029601664  
     86600   0.51108072    -3.2014646      0.24159147    -2.2315831     -0.0020270301 
     86700   0.52252604    -2.9424467      0.23972574    -1.9581213      0.061935616  
     86800   0.63088176    -3.0726517      0.34217976    -1.8314655      0.0533776    
     86900   0.43002245    -2.7899376      0.19538542    -1.9817702     -0.032634721  
     87000   0.50327022    -2.8300311      0.14718084    -1.9656902     -0.029513428  
     87100   0.40523505    -2.8267952      0.2619792     -1.987356       0.021132798  
     87200   0.58817976    -2.982823       0.21182168    -1.9328452      0.053781829  
     87300   0.47620202    -2.9206297      0.41368639    -1.8283555      0.0026216239 
     87400   0.48220781    -2.8196964      0.27347464    -1.8590756     -0.010068147  
     87500   0.45431292    -2.884568       0.1402567     -2.0969154     -0.044541793  
     87600   0.47830521    -3.0613766      0.18742898    -2.1923627     -0.00022124605
     87700   0.43654524    -2.9408621      0.21038951    -2.1083957     -0.07172181   
     87800   0.48918191    -2.7170733      0.30730341    -1.7126856     -0.088797055  
     87900   0.58021576    -2.7693029      0.23340689    -1.7090885     -0.087275841  
     88000   0.52788336    -2.7891743      0.25473837    -1.7822022     -0.01546495   
     88100   0.57678498    -3.0108269      0.20035721    -1.9885511      0.0057803834 
     88200   0.41435155    -2.927895       0.11765234    -2.2197918     -0.049579433  
     88300   0.38187112    -2.8838553      0.17652942    -2.1631595     -0.070267625  
     88400   0.50601153    -2.8806015      0.14515787    -2.0143772      0.009320476  
     88500   0.43972069    -2.8524941      0.31484271    -1.9110495      0.091875469  
     88600   0.53120605    -2.7671389      0.13836808    -1.8718022      0.027645768  
     88700   0.54911996    -2.784923       0.25222107    -1.750206      -0.070480852  
     88800   0.59042001    -2.6266404      0.34505932    -1.4402326     -0.083738498  
     88900   0.58785736    -2.8789107      0.43997932    -1.6012346     -0.095063635  
     89000   0.5161819     -2.8056319      0.13032064    -1.9397521     -0.053454666  
     89100   0.43693964    -2.8266765      0.22512535    -1.9789121     -0.063366106  
     89200   0.45924825    -2.8993418      0.31848594    -1.9264271     -0.045691251  
     89300   0.40683513    -2.8493385      0.36061116    -1.9089873     -0.027971613  
     89400   0.58411533    -3.0015849      0.1792211     -1.9899994     -0.017889097  
     89500   0.40402723    -2.827408       0.12272595    -2.1289433     -0.073456463  
     89600   0.54209484    -2.9758253      0.21698413    -1.9863561      0.027146106  
     89700   0.58234024    -2.748616       0.1572704     -1.7615107     -0.038974927  
     89800   0.65299358    -2.7000118      0.30832559    -1.4611703      0.025066158  
     89900   0.54970209    -2.7502805      0.3599729     -1.6069821     -0.022882796  
     90000   0.37140672    -2.5314685      0.31258948    -1.6896244      0.00011949614
[...]
     78600   2.0391506     -3.3107611      1.0835483      0.81621954    -0.03025779   
     78700   2.0088184     -3.3315721      1.0162696      0.68285888     0.021337294  
     78800   1.8473313     -3.2049234      0.9842885      0.5365071     -0.030482337  
     78900   1.8951741     -3.1333077      0.98974225     0.68498194    -0.043020146  
     79000   2.147842      -3.2769322      1.2054518      1.1341739     -0.0030062952 
     79100   2.119333      -3.2420101      1.1331058      1.0542002      0.047004307  
     79200   1.976807      -3.2297942      0.96518486     0.68577512     0.021992428  
     79300   1.9178607     -3.2696211      0.98272716     0.5755131     -0.0064221694 
     79400   2.0197396     -3.1774188      0.89463283     0.73167532    -0.036969491  
     79500   2.1113673     -3.3447581      1.076099       0.88255648    -0.012965099  
     79600   2.042145      -3.3096089      1.042505       0.78079755     0.0015651638 
     79700   1.9895539     -3.3273142      1.0576415      0.69973641    -0.024111992  
     79800   1.9998961     -3.2435935      1.0019993      0.74325077    -0.00084857266
     79900   2.0851288     -3.2044976      0.95012687     0.85768402    -0.010960176  
     80000   1.9815968     -3.1876363      1.1498035      0.9197004     -0.043159783  
     80100   2.1127783     -3.2429918      1.0277583      0.9380881     -0.020185326  
     80200   1.986286      -3.1830936      0.87271977     0.65415805    -0.0073767123 
     80300   1.8636322     -3.2688343      1.0162697      0.52890652    -0.021855888  
     80400   2.0132756     -3.1739215      0.91973349     0.75062582    -0.014561011  
     80500   2.0878833     -3.1195068      1.0924608      1.0891198      0.024992057  
     80600   2.1468024     -3.1476701      1.0084131      1.0648456      0.019825633  
     80700   1.8077038     -3.1462727      0.96593821     0.51766337    -0.00039924994
     80800   1.7889306     -3.1140172      0.99714606     0.55310778    -0.040614788  
     80900   2.0750338     -3.0264869      0.82353354     0.89403464    -4.4470627e-05
     81000   2.0012217     -2.8970884      0.93889846     1.0286334      0.035670756  
     81100   1.8968108     -3.0104167      1.2746686      1.0952421     -0.04320654   
     81200   2.0631094     -3.0308336      1.2094917      1.257849       0.015155287  
     81300   2.2404925     -3.0175318      1.1278705      1.4542737      0.030943413  
     81400   2.0673348     -2.979526       0.99975162     1.1057228      0.0074930816 
     81500   1.9594187     -2.8856243      0.83677316     0.87558133     0.02478667   
     81600   2.0651628     -2.9539196      0.87016696     0.9985028     -0.022344812  
     81700   2.1489229     -3.0364805      0.9694203      1.1402071     -0.02420008   
     81800   1.9570264     -2.9623693      1.0137804      0.97227297     0.0059962151 
     81900   1.8842262     -2.9913011      0.79052079     0.61142735    -0.0021105122 
     82000   1.7937961     -2.9008988      0.94299816     0.71934005     0.0025454862 
     82100   2.0126943     -3.1121602      1.177349       1.069135       0.0014679299 
     82200   2.1194431     -3.0794871      0.97751549     1.0612973      0.005219179  
     82300   1.9184903     -3.0005967      0.95786725     0.82061733    -0.03098021   
     82400   1.9747945     -3.0149287      0.9466634      0.87911553    -0.017556605  
     82500   1.9796192     -2.9680896      1.263773       1.2502651      0.014680428  
     82600   2.3915674     -3.1681469      1.0945395      1.4958069     -0.0070947487 
     82700   2.1692514     -2.9889788      0.86943134     1.1180602     -0.0050624626 
     82800   1.9555448     -2.8386713      0.85646545     0.93644468     0.020779586  
     82900   2.0019271     -3.0115521      0.7894181      0.76574222     0.02286101   
     83000   1.8369587     -3.133323       1.0430725      0.65141041     0.01537796   
     83100   1.985978      -3.1341621      0.96325992     0.79317       -0.059401089  
     83200   2.1568954     -3.0773147      0.9784077      1.1202594      0.020660894  
     83300   2.0225381     -3.1461562      1.1671562      1.0396382      0.032751761  
     83400   1.8316152     -3.0319818      0.85695671     0.55866057     0.0089463437 
     83500   1.838665      -3.0463465      0.87055782     0.56841884    -0.017589072  
     83600   1.9570511     -3.0673515      1.0320355      0.88558281     0.033670999  
     83700   2.0158922     -2.9870111      1.0666894      1.0883975     -0.0083681036 
     83800   1.9903219     -2.9184098      1.0240016      1.0761472     -0.046350341  
     83900   2.0610495     -2.9444783      0.92873501     1.0603731     -0.01444301   
     84000   2.1329371     -2.8871086      0.78391536     1.0802153      0.010439494  
     84100   1.9996041     -2.9045135      0.91935513     0.99925077    -0.043312027  
     84200   2.0216699     -2.8775626      0.83351889     0.97329862    -0.027209238  
     84300   2.1184338     -2.863483       0.93881577     1.2370952      0.039990546  
     84400   2.2071267     -2.9423644      1.1331931      1.4849654     -0.047792603  
     84500   2.031864      -2.8198584      1.1005282      1.3132267      0.012965238  
     84600   1.8157608     -2.9488679      1.187808       0.94896314    -0.041432052  
     84700   1.901335      -2.9360672      1.083441       0.98511626     0.002303529  
     84800   2.0181507     -2.8605406      0.98019514     1.1317445      0.01400243   
     84900   2.127159      -2.847361       0.96897248     1.2963963      0.028025884  
     85000   2.0804293     -2.8448191      0.97378583     1.2340075      0.023112449  
     85100   1.9880019     -3.0760868      0.95137873     0.8423847     -0.039754924  
     85200   1.8990075     -3.0056744      0.82360474     0.65219905    -0.0274118    
     85300   1.9355291     -3.1552423      0.99195592     0.72549072    -0.034096041  
     85400   2.009263      -2.8641579      0.94220058     1.0768678      0.068708805  
     85500   2.0979618     -2.8846871      1.1879325      1.4344533     -0.011512097  
     85600   2.174617      -2.9530248      0.90588076     1.1984718      0.036701849  
     85700   2.0047327     -3.0343557      1.0451117      1.0028195     -0.027353309  
     85800   2.0562494     -3.1482277      0.84332847     0.76405304     0.035543876  
     85900   1.9818676     -3.1847169      0.79953773     0.57275828     0.053125457  
     86000   1.9046718     -3.19911        0.97981291     0.62342555     0.0038539488 
     86100   2.2512393     -3.2244135      0.93852028     1.0740814      0.034254532  
     86200   2.0989823     -3.2390987      1.1526119      1.0462442      0.057053316  
     86300   1.9989229     -3.2923741      0.9087667      0.59978506    -0.025779077  
     86400   1.9439713     -3.2939189      0.9941282      0.60158649    -0.038388722  
     86500   1.9445054     -3.236413       1.1212096      0.78697092    -0.016821226  
     86600   2.134223      -3.2571551      0.99222935     0.92040215     0.0063393224 
     86700   1.9492409     -3.2041929      0.97752444     0.68257356    -0.020561459  
     86800   1.7016625     -3.2007801      1.1195249      0.45847616     0.032559243  
     86900   2.0386648     -3.2617515      0.86402915     0.64498483    -0.015086991  
     87000   2.1693372     -3.2925274      1.0329504      0.97815883     0.0031597441 
     87100   2.0063437     -3.3001207      1.213485       0.9078323      0.0060199318 
     87200   1.8664834     -3.4647837      1.0324905      0.35343322    -0.035068968  
     87300   1.8389481     -3.3872933      0.99892131     0.35625797    -0.0095077892 
     87400   2.0438251     -3.3097731      0.97868773     0.71932368    -0.028819432  
     87500   2.2697996     -3.3567116      0.85114552     0.88210988    -0.0045158716 
     87600   1.9497388     -3.3451231      1.0503006      0.6151626      0.0068451082 
     87700   1.8941498     -3.4258506      0.95068117     0.35184914     0.03326956   
     87800   1.9399282     -3.5199712      1.0074304      0.38280213    -0.0074054734 
     87900   1.9610635     -3.4431289      0.99670828     0.48046671     0.018265568  
     88000   1.8664988     -3.4841538      1.2883564      0.58995195    -0.0063169136 
     88100   1.9883546     -3.42671        1.1188668      0.65977611     0.023210176  
     88200   2.0761444     -3.552051       0.93012784     0.4767224     -0.013200471  
     88300   1.8725833     -3.6485783      0.859191       0.005443246   -0.044074806  
     88400   1.9667869     -3.8104783      0.97505899     0.10001022    -0.031899105  
     88500   2.0564143     -3.6061373      0.93581546     0.39887656     0.0054699936 
     88600   2.0506689     -3.5661382      0.99854994     0.49303504     0.0022509893 
     88700   2.1006344     -3.7237116      0.96450182     0.37598711    -0.039421763  
     88800   2.0060028     -3.8330449      0.83631344    -0.0027723203   0.020338573  
     88900   1.9212779     -3.745864       0.7817961     -0.096560548    0.01872689   
     89000   1.9936433     -3.9170879      1.0830405      0.14146529    -0.0097517482 
     89100   2.0655795     -3.8129251      1.1309235      0.40087573     0.0028090462 
     89200   2.304762      -3.6026608      0.85237481     0.68957127     0.047815282  
     89300   2.1567461     -3.7666517      0.93830204     0.39059389     0.020305909  
     89400   1.8835603     -3.7043751      0.94671195     0.053550567   -0.022646927  
     89500   1.8879976     -3.5839079      0.83212473     0.066053288    0.028481004  
     89600   2.1520602     -3.6981734      0.90273884     0.41651531     0.031206373  
     89700   1.9729899     -3.6305211      1.1346329      0.44879927     0.038162596  
     89800   1.8977739     -3.6534664      1.1575645      0.33652569     0.0099833172 
     89900   2.1376351     -3.8627097      0.92267138     0.25038206    -0.038543398  
     90000   1.8927777     -3.768839       0.82091502    -0.12295324    -0.016566993  
     90100   1.7137656     -3.8826342      0.9055206     -0.41931843    -0.035948938  
     90200   1.8666822     -3.7789174      0.8801929     -0.11270131     0.0056366995 
     90300   2.0093305     -3.7419735      0.97047763     0.22742992     0.039060581  
     90400   2.1511834     -3.7902893      0.93868911     0.35904094    -0.015299368  
     90500   1.9981057     -3.8209183      0.89523529     0.056489736    0.029053571  
     90600   1.9031918     -3.9329605      0.97154359    -0.12090317    -0.017591215  
     90700   1.7567047     -3.6316658      0.97189153    -0.037892509   -0.017874134  
     90800   2.0263579     -3.6029712      0.89908426     0.32045216     0.0034314217 
     90900   2.1544152     -3.819947       0.99346655     0.38898423    -0.059692343  
     91000   1.9628865     -3.5783435      0.96183448     0.31309912     0.027117948  
     91100   1.9702677     -3.6275225      0.84337127     0.15647338     0.014579051  
     91200   1.9671348     -3.8218454      1.0279527      0.14205602    -0.054487231  
     91300   2.0760668     -3.7502106      1.0836399      0.43195884     0.058801107  
     91400   1.997794      -3.4707583      0.87611234     0.38706165     0.064683665  
     91500   1.9553919     -3.7843691      0.84974846    -0.016198307   -0.032949169  
     91600   1.9254864     -3.6219852      0.74534615    -0.002850649    0.026064644  
     91700   1.7419203     -3.4329674      1.0652325      0.23208119     0.039052353  
     91800   2.057282      -3.3489997      0.73701961     0.45851334     0.035495321  
     91900   1.8815051     -3.308954       1.0709452      0.57013759    -0.021074044  
     92000   1.8619397     -3.1625231      1.1674774      0.7838993     -0.00082769786
     92100   2.2965169     -3.1427122      0.84808565     1.1329249      0.028774744  
     92200   2.1683347     -3.1051871      1.0084728      1.1395253      0.011469115  
     92300   1.8842746     -3.1154452      0.83246867     0.52930329     0.0078882963 
     92400   1.8586554     -3.2025076      1.0334042      0.60493986    -0.027231805  
     92500   2.0280165     -3.2315365      1.1488716      0.94414965    -0.10439454   
     92600   2.1335046     -3.082968       1.0557094      1.156997      -0.034732806  
     92700   2.0856789     -3.0942738      1.0782962      1.0968982     -0.03557559   
     92800   1.882465      -3.1741704      1.070446       0.70585455    -0.041047556  
     92900   1.7995241     -3.162872       1.054845       0.57776279     0.019039155  
     93000   2.0407306     -3.236604       0.94581683     0.75500319    -0.019090343  
     93100   2.0065313     -3.1731034      1.0017685      0.82341308     0.028818356  
     93200   2.0994129     -3.2802279      0.95256329     0.80570912    -0.025966031  
     93300   1.8790823     -3.2622749      0.98520149     0.5274569      0.033924411  
     93400   1.8151521     -3.4087143      0.90502086     0.20542113     0.007472089  
     93500   1.9660179     -3.3862868      0.80262534     0.35062025     0.03216861   
     93600   2.1496141     -3.5036104      0.952396       0.65708474     0.031994257  
     93700   2.0787361     -3.4366283      0.95084678     0.6167321      0.075967744  
     93800   1.9994327     -3.4616643      0.96507483     0.48756382     0.034965072  
     93900   1.8405645     -3.3732068      1.0797641      0.45359996    -0.0038994425 
     94000   1.9555596     -3.2254998      1.1001165      0.79328945    -0.00072788068
     94100   2.0888357     -3.2574843      1.1815932      1.0416961     -0.027842714  
     94200   2.1093959     -3.3175541      1.0317391      0.8624585     -0.0086338153 
     94300   1.9228969     -3.2530384      1.0852134      0.70209874    -0.028391285  
     94400   2.0146833     -3.1502979      0.88747586     0.74409275     0.01536824   
     94500   1.8752905     -2.9596797      0.98652227     0.82571361     0.019245411  
     94600   2.0026994     -3.0886029      1.0908012      0.99122719    -0.02637072   
     94700   2.2219059     -3.1295196      1.0691299      1.2558049      0.0018831431 
     94800   2.03059       -3.0954696      1.0793252      1.0145112      0.00058294112
     94900   1.93751       -3.0677575      0.83123751     0.65521365     0.031088604  
     95000   2.0062931     -3.157206       0.77559998     0.61278646    -0.00029049031
     95100   1.8785742     -3.0878547      1.1385198      0.85443714     0.036892807  
     95200   2.1865528     -3.1860134      1.0724557      1.1498724      0.035812958  
     95300   2.1014664     -3.0757233      0.96057766     1.021293       0.040497362  
     95400   1.8638775     -2.9673837      1.0623226      0.87677606    -0.022997412  
     95500   2.0077302     -2.8686172      0.8617082      0.98962836     0.011627016  
     95600   2.0803663     -2.8160255      1.0526462      1.3415675      0.02864824   
     95700   2.4127589     -2.8091431      0.95116598     1.7430656      0.010279756  
     95800   2.2598412     -2.7568637      1.0876897      1.7036389     -0.016636461  
     95900   1.9390025     -2.7804371      1.0879567      1.2014808     -0.036398545  
     96000   1.7395853     -2.5955059      1.1852863      1.1861115     -0.041412942  
     96100   2.0091238     -2.5895626      1.0482313      1.4572859      0.0027524579 
     96200   2.1115618     -2.6159704      1.0317074      1.5672431     -0.030910762  
     96300   2.0262289     -2.6633909      0.96290754     1.3236633     -0.060212393  
     96400   1.7142639     -2.4850027      0.9139741      0.9875103     -0.0085404714 
     96500   1.9185552     -2.5147747      0.8096881      1.1583571     -0.017948476  
     96600   2.080122      -2.5777592      0.82872511     1.355548      -0.010019361  
     96700   2.0866572     -2.6712616      0.903419       1.3464934     -0.013890948  
     96800   1.9741565     -2.6529646      0.93931277     1.2327768      0.035228755  
     96900   1.872175      -2.7898797      0.92960434     0.93394587     0.0021728551 
     97000   1.8277103     -2.7886547      0.81025947     0.74946244     0.0084233189 
     97100   1.9604291     -2.8300369      0.99077471     1.0866782      0.015525447  
     97200   2.1223729     -2.9353624      1.0361         1.2683792     -0.022942823  
     97300   2.0695828     -2.9076583      0.98564518     1.1668392      0.016509024  
     97400   1.8744496     -2.9914301      1.1400976      0.94628345    -0.01539784   
     97500   1.8543396     -3.0801977      1.2059161      0.89332026    -0.029819749  
     97600   2.0462762     -2.9801273      1.1842093      1.2581492     -0.0028718907 
     97700   2.0212419     -2.9214005      1.3858092      1.4811122      0.022959274  
     97800   2.2062144     -3.1327026      1.0363538      1.1964262      0.027587662  
     97900   2.1300605     -3.1279969      0.88781993     0.93893829     0.026318887  
     98000   2.0023786     -3.1625054      0.93768225     0.76372697     0.0021061723 
     98100   1.9692434     -3.2596784      1.0046126      0.68403003    -0.0078645168 
     98200   1.8088507     -3.1362807      1.1375982      0.70102721     0.029814012  
     98300   2.000719      -3.0944137      1.2279381      1.1195975     -0.0064464849 
     98400   2.1794247     -3.2130359      0.99957879     1.0393342      0.005344792  
     98500   1.9559171     -3.0756323      0.91186987     0.75544383     0.026352692  
     98600   1.8766984     -3.1330134      1.06784        0.73579902     0.001287429  
     98700   1.922506      -3.1630013      1.198754       0.90509288    -0.016199784  
     98800   2.0730498     -3.0363305      1.1114991      1.1691955      0.012094308  
     98900   2.0193124     -2.9790112      1.0355991      1.0704117      0.021238969  
     99000   2.0594524     -3.018298       0.88589252     0.9413272      0.02438323   
     99100   1.9882341     -3.1322278      0.95985678     0.79506841    -0.022724547  
     99200   1.8054777     -3.0475058      1.1517207      0.79889024    -0.023325908  
     99300   2.1649449     -2.9889781      0.99556978     1.2377719      0.04114164   
     99400   2.1293094     -2.9491779      1.0568311      1.2856474      0.028787305  
     99500   2.0692097     -2.9345598      0.85293431     1.00667        0.0058310733 
     99600   1.7881238     -2.9337624      1.0596225      0.7946348      0.038480327  
     99700   1.9513414     -3.0977548      1.0070754      0.82169775    -0.033708768  
     99800   1.9850715     -3.1538407      1.0838997      0.89277826    -0.060480176  
     99900   2.1763869     -3.0856176      1.007301       1.1699409      0.046285877  
    100000   2.2417323     -3.0471146      1.035961       1.334632      -0.0016014285 
Loop time of 30.4338 on 4 procs for 100000 steps with 200 atoms

Performance: 709736.849 tau/day, 3285.819 timesteps/s, 657.164 katom-step/s
54.2% CPU use with 1 MPI tasks x 4 OpenMP threads

MPI task timing breakdown:
Section |  min time  |  avg time  |  max time  |%varavg| %total
---------------------------------------------------------------
Pair    | 4.8906     | 4.8906     | 4.8906     |   0.0 | 16.07
Bond    | 0.18064    | 0.18064    | 0.18064    |   0.0 |  0.59
Neigh   | 2.6866     | 2.6866     | 2.6866     |   0.0 |  8.83
Comm    | 0.85895    | 0.85895    | 0.85895    |   0.0 |  2.82
Output  | 0.12818    | 0.12818    | 0.12818    |   0.0 |  0.42
Modify  | 21.547     | 21.547     | 21.547     |   0.0 | 70.80
Other   |            | 0.1421     |            |       |  0.47

Nlocal:            200 ave         200 max         200 min
Histogram: 1 0 0 0 0 0 0 0 0 0
Nghost:           2083 ave        2083 max        2083 min
Histogram: 1 0 0 0 0 0 0 0 0 0
Neighs:           6247 ave        6247 max        6247 min
Histogram: 1 0 0 0 0 0 0 0 0 0

Total # of neighbors = 6247
Ave neighs/atom = 31.235
Ave special neighs/atom = 5.94
Neighbor list builds = 8369
Dangerous builds = 0
Total wall time: 0:00:30
