ITEM: TIMESTEP
0
ITEM: NUMBER OF ATOMS
50
ITEM: BOX BOUNDS pp pp pp
0.0000000000000000e+00 5.1530000000000001e+01
0.0000000000000000e+00 5.0000000000000000e+00
0.0000000000000000e+00 5.0000000000000000e+00
ITEM: ATOMS id type xs ys zs
1 1 0.0388123 0.5 0.5
2 1 0.0576363 0.5 0.5
3 1 0.0764603 0.5 0.5
4 1 0.0952843 0.5 0.5
5 1 0.114108 0.5 0.5
6 1 0.132932 0.5 0.5
7 1 0.151756 0.5 0.5
8 1 0.17058 0.5 0.5
9 1 0.189404 0.5 0.5
10 1 0.208228 0.5 0.5
11 1 0.227052 0.5 0.5
12 1 0.245876 0.5 0.5
13 1 0.2647 0.5 0.5
14 1 0.283524 0.5 0.5
15 1 0.302348 0.5 0.5
16 1 0.321172 0.5 0.5
17 1 0.339996 0.5 0.5
18 1 0.35882 0.5 0.5
19 1 0.377644 0.5 0.5
20 1 0.396468 0.5 0.5
21 1 0.415292 0.5 0.5
22 1 0.434116 0.5 0.5
23 1 0.45294 0.5 0.5
24 1 0.471764 0.5 0.5
25 1 0.490588 0.5 0.5
26 1 0.509412 0.5 0.5
27 1 0.528236 0.5 0.5
28 1 0.54706 0.5 0.5
29 1 0.565884 0.5 0.5
30 1 0.584708 0.5 0.5
31 1 0.603532 0.5 0.5
32 1 0.622356 0.5 0.5
33 1 0.64118 0.5 0.5
34 1 0.660004 0.5 0.5
35 1 0.678828 0.5 0.5
36 1 0.697652 0.5 0.5
37 1 0.716476 0.5 0.5
38 1 0.7353 0.5 0.5
39 1 0.754124 0.5 0.5
40 1 0.772948 0.5 0.5
41 1 0.791772 0.5 0.5
42 1 0.810596 0.5 0.5
43 1 0.82942 0.5 0.5
44 1 0.848244 0.5 0.5
45 1 0.867068 0.5 0.5
46 1 0.885892 0.5 0.5
47 1 0.904716 0.5 0.5
48 1 0.92354 0.5 0.5
49 1 0.942364 0.5 0.5
50 1 0.961188 0.5 0.5
ITEM: TIMESTEP
100
ITEM: NUMBER OF ATOMS
50
ITEM: BOX BOUNDS pp pp pp
0.0000000000000000e+00 5.1530000000000001e+01
0.0000000000000000e+00 5.0000000000000000e+00
0.0000000000000000e+00 5.0000000000000000e+00
ITEM: ATOMS id type xs ys zs
1 1 0.0251541 0.440296 0.446209
2 1 0.0491745 0.459045 0.42154
3 1 0.0690301 0.487263 0.600731
4 1 0.0937453 0.529092 0.643535
5 1 0.113078 0.408097 0.620161
6 1 0.133797 0.478624 0.564438
7 1 0.153783 0.478261 0.458243
8 1 0.172856 0.607984 0.515824
9 1 0.192139 0.49239 0.673621
10 1 0.208894 0.559254 0.452212
11 1 0.227587 0.39209 0.55774
12 1 0.24392 0.52244 0.398464
13 1 0.267468 0.611326 0.487914
14 1 0.284775 0.470613 0.300713
15 1 0.3051 0.600244 0.366523
16 1 0.321533 0.536923 0.502144
17 1 0.343091 0.529342 0.508714
18 1 0.361555 0.386538 0.436764
19 1 0.380522 0.461587 0.515336
20 1 0.395914 0.632961 0.481021
21 1 0.413119 0.427036 0.528271
22 1 0.435176 0.452722 0.491255
23 1 0.457256 0.489496 0.506722
24 1 0.477952 0.546019 0.650246
25 1 0.492224 0.473109 0.429483
26 1 0.514826 0.615254 0.371859
27 1 0.529896 0.481078 0.583
28 1 0.550779 0.520182 0.411551
29 1 0.56722 0.408286 0.586359
30 1 0.587445 0.558658 0.424158
31 1 0.607946 0.435794 0.528842
32 1 0.623284 0.653777 0.463264
33 1 0.634861 0.400909 0.586098
34 1 0.653542 0.571749 0.522084
35 1 0.675284 0.404777 0.496359
36 1 0.694135 0.603878 0.440882
37 1 0.712158 0.406007 0.509785
38 1 0.730322 0.562894 0.410468
39 1 0.752934 0.503349 0.478168
40 1 0.771955 0.382111 0.57855
41 1 0.792098 0.537834 0.520897
42 1 0.816598 0.486771 0.414471
43 1 0.831143 0.585548 0.631858
44 1 0.845817 0.383622 0.54013
45 1 0.861945 0.627189 0.503103
46 1 0.88638 0.502206 0.409165
47 1 0.901916 0.344601 0.583234
48 1 0.920544 0.520989 0.53585
49 1 0.945196 0.486376 0.456641
50 1 0.972933 0.543409 0.455399
ITEM: TIMESTEP
200
ITEM: NUMBER OF ATOMS
50
ITEM: BOX BOUNDS pp pp pp
0.0000000000000000e+00 5.1530000000000001e+01
0.0000000000000000e+00 5.0000000000000000e+00
0.0000000000000000e+00 5.0000000000000000e+00
ITEM: ATOMS id type xs ys zs
1 1 0.0207854 0.398154 0.399321
2 1 0.0438371 0.437342 0.47105
3 1 0.0631042 0.487032 0.611598
4 1 0.0847281 0.47077 0.71729
5 1 0.108592 0.397921 0.714711
6 1 0.13462 0.446677 0.60192
7 1 0.158077 0.513996 0.485707
8 1 0.175716 0.590339 0.55637
9 1 0.194894 0.578052 0.658418
10 1 0.211257 0.516268 0.550252
11 1 0.229966 0.412663 0.495278
12 1 0.246342 0.533995 0.422769
13 1 0.263662 0.577651 0.340618
14 1 0.283324 0.558753 0.242024
15 1 0.303541 0.634467 0.285709
16 1 0.320703 0.581896 0.461552
17 1 0.344046 0.500619 0.489828
18 1 0.364056 0.361734 0.438329
19 1 0.383588 0.442378 0.493657
20 1 0.399861 0.62297 0.497796
21 1 0.41314 0.452695 0.516528
22 1 0.436239 0.433248 0.508705
23 1 0.461122 0.478122 0.532274
24 1 0.485974 0.534328 0.633268
25 1 0.495928 0.559463 0.451943
26 1 0.51359 0.570107 0.399943
27 1 0.533023 0.553013 0.474819
28 1 0.552628 0.480084 0.472223
29 1 0.570089 0.444194 0.513533
30 1 0.590234 0.499401 0.476377
31 1 0.606928 0.462567 0.496686
32 1 0.624455 0.668108 0.475569
33 1 0.632346 0.43349 0.621405
34 1 0.651563 0.510699 0.551209
35 1 0.670119 0.484885 0.477101
36 1 0.688624 0.531773 0.44053
37 1 0.70872 0.465777 0.447364
38 1 0.729938 0.518941 0.416672
39 1 0.75154 0.479175 0.475464
40 1 0.774069 0.427409 0.554235
41 1 0.79541 0.45782 0.524736
42 1 0.813862 0.551329 0.456042
43 1 0.828886 0.575696 0.657452
44 1 0.849073 0.449724 0.585025
45 1 0.865061 0.520387 0.447726
46 1 0.881775 0.484026 0.512756
47 1 0.901957 0.400735 0.521226
48 1 0.92662 0.442755 0.522738
49 1 0.94476 0.52295 0.481569
50 1 0.967624 0.543425 0.420686
ITEM: TIMESTEP
300
ITEM: NUMBER OF ATOMS
50
ITEM: BOX BOUNDS pp pp pp
0.0000000000000000e+00 5.1530000000000001e+01
0.0000000000000000e+00 5.0000000000000000e+00
0.0000000000000000e+00 5.0000000000000000e+00
ITEM: ATOMS id type xs ys zs
1 1 0.0246367 0.375125 0.378743
2 1 0.040571 0.427418 0.56118
3 1 0.0647795 0.468878 0.613703
4 1 0.0870359 0.360907 0.704715
5 1 0.105881 0.508076 0.696282
6 1 0.126226 0.389677 0.64251
7 1 0.146912 0.538693 0.61292
8 1 0.172708 0.552521 0.574638
9 1 0.195514 0.649389 0.692399
10 1 0.21328 0.504861 0.598811
11 1 0.231139 0.361563 0.454996
12 1 0.249098 0.574755 0.459702
13 1 0.261467 0.573943 0.216094
14 1 0.285956 0.624815 0.166437
15 1 0.305566 0.623934 0.300189
16 1 0.332006 0.640995 0.343343
17 1 0.337953 0.404743 0.436917
18 1 0.361016 0.445591 0.513111
19 1 0.384772 0.435658 0.417212
20 1 0.40266 0.595795 0.530553
21 1 0.418438 0.45989 0.484443
22 1 0.441787 0.450473 0.56731
23 1 0.462557 0.462315 0.575015
24 1 0.4796 0.495498 0.643396
25 1 0.489609 0.631123 0.443694
26 1 0.513235 0.549982 0.33867
27 1 0.536003 0.661185 0.419989
28 1 0.54725 0.415068 0.510911
29 1 0.573684 0.382993 0.524222
30 1 0.596865 0.53498 0.460743
31 1 0.618086 0.424101 0.476263
32 1 0.626209 0.66099 0.537011
33 1 0.620008 0.477715 0.64231
34 1 0.645541 0.522437 0.599441
35 1 0.665066 0.488395 0.43299
36 1 0.689402 0.549633 0.40362
37 1 0.712073 0.49648 0.384131
38 1 0.732587 0.45802 0.438457
39 1 0.7544 0.39826 0.515641
40 1 0.776942 0.539462 0.487909
41 1 0.794984 0.403195 0.528487
42 1 0.81109 0.578939 0.515704
43 1 0.828256 0.570911 0.648302
44 1 0.849151 0.492144 0.602585
45 1 0.865059 0.455629 0.444592
46 1 0.883152 0.457867 0.582561
47 1 0.905834 0.492087 0.462174
48 1 0.930059 0.338634 0.510003
49 1 0.940672 0.556092 0.520322
50 1 0.963221 0.538165 0.384646
ITEM: TIMESTEP
400
ITEM: NUMBER OF ATOMS
50
ITEM: BOX BOUNDS pp pp pp
0.0000000000000000e+00 5.1530000000000001e+01
0.0000000000000000e+00 5.0000000000000000e+00
0.0000000000000000e+00 5.0000000000000000e+00
ITEM: ATOMS id type xs ys zs
1 1 0.0332179 0.372102 0.421094
2 1 0.0447394 0.419228 0.608189
3 1 0.0645666 0.379132 0.641213
4 1 0.0880893 0.34045 0.633035
5 1 0.102158 0.547219 0.667766
6 1 0.122583 0.456858 0.688928
7 1 0.144205 0.496846 0.707493
8 1 0.167028 0.568782 0.691959
9 1 0.190923 0.568842 0.591714
10 1 0.212485 0.498724 0.631757
11 1 0.231793 0.499982 0.498169
12 1 0.249757 0.493938 0.352636
13 1 0.265194 0.601428 0.204948
14 1 0.287736 0.653287 0.192419
15 1 0.308074 0.635032 0.246742
16 1 0.33054 0.587445 0.275591
17 1 0.341945 0.438351 0.394485
18 1 0.35903 0.483299 0.491205
19 1 0.380507 0.479166 0.441779
20 1 0.399374 0.54178 0.524106
21 1 0.419079 0.45625 0.426462
22 1 0.439306 0.452184 0.625294
23 1 0.465572 0.453315 0.578987
24 1 0.487771 0.510682 0.653817
25 1 0.491585 0.604163 0.436301
26 1 0.513391 0.638419 0.369911
27 1 0.532994 0.541914 0.399119
28 1 0.554996 0.492015 0.484557
29 1 0.573414 0.453564 0.488039
30 1 0.596045 0.450628 0.495377
31 1 0.621856 0.462867 0.48519
32 1 0.629 0.634495 0.530187
33 1 0.618196 0.491899 0.669486
34 1 0.638541 0.504607 0.565238
35 1 0.658869 0.527902 0.47472
36 1 0.683988 0.540025 0.379065
37 1 0.712277 0.505694 0.354558
38 1 0.736476 0.420704 0.447755
39 1 0.760587 0.41093 0.508838
40 1 0.777003 0.548793 0.463654
41 1 0.793147 0.37178 0.50382
42 1 0.805176 0.601442 0.596673
43 1 0.826987 0.553671 0.641679
44 1 0.851398 0.568776 0.572741
45 1 0.867528 0.350887 0.551223
46 1 0.890695 0.461104 0.514901
47 1 0.911315 0.48968 0.505701
48 1 0.925365 0.354742 0.459373
49 1 0.938502 0.546245 0.534639
50 1 0.954994 0.538731 0.377464
ITEM: TIMESTEP
500
ITEM: NUMBER OF ATOMS
50
ITEM: BOX BOUNDS pp pp pp
0.0000000000000000e+00 5.1530000000000001e+01
0.0000000000000000e+00 5.0000000000000000e+00
0.0000000000000000e+00 5.0000000000000000e+00
ITEM: ATOMS id type xs ys zs
1 1 0.0399929 0.360408 0.428771
2 1 0.047005 0.424078 0.678814
3 1 0.067736 0.290845 0.672947
4 1 0.0905758 0.335267 0.57157
5 1 0.0980454 0.559164 0.63144
6 1 0.122058 0.551442 0.737565
7 1 0.145678 0.452386 0.792102
8 1 0.168208 0.564344 0.750964
9 1 0.181904 0.475701 0.580433
10 1 0.207153 0.530273 0.61132
11 1 0.232287 0.568525 0.496962
12 1 0.247188 0.489764 0.31661
13 1 0.26469 0.595439 0.19221
14 1 0.287119 0.692714 0.25863
15 1 0.310013 0.673542 0.151044
16 1 0.329806 0.529389 0.183545
17 1 0.342361 0.423548 0.339266
18 1 0.355882 0.540609 0.534595
19 1 0.381519 0.508931 0.433413
20 1 0.402985 0.486056 0.524255
21 1 0.425582 0.464522 0.485133
22 1 0.443882 0.453783 0.541389
23 1 0.461719 0.479701 0.652004
24 1 0.486607 0.493165 0.631434
25 1 0.494734 0.597038 0.434726
26 1 0.517385 0.645895 0.401468
27 1 0.529358 0.459352 0.393732
28 1 0.55327 0.604156 0.435729
29 1 0.579275 0.523449 0.447277
30 1 0.597644 0.35072 0.539304
31 1 0.620867 0.463383 0.47579
32 1 0.631087 0.634306 0.557917
33 1 0.621862 0.528939 0.669897
34 1 0.64014 0.494888 0.488573
35 1 0.66403 0.550688 0.475901
36 1 0.686225 0.493615 0.419625
37 1 0.70667 0.466746 0.446567
38 1 0.729833 0.452057 0.402439
39 1 0.754509 0.452377 0.457779
40 1 0.774274 0.549033 0.438014
41 1 0.793672 0.397896 0.511168
42 1 0.805269 0.557629 0.649266
43 1 0.827547 0.556436 0.605353
44 1 0.850456 0.519648 0.573786
45 1 0.867689 0.387719 0.634948
46 1 0.890297 0.459213 0.493227
47 1 0.912577 0.493214 0.512303
48 1 0.929059 0.361371 0.431485
49 1 0.934421 0.519599 0.534536
50 1 0.947857 0.537036 0.372775
ITEM: TIMESTEP
600
ITEM: NUMBER OF ATOMS
50
ITEM: BOX BOUNDS pp pp pp
0.0000000000000000e+00 5.1530000000000001e+01
0.0000000000000000e+00 5.0000000000000000e+00
0.0000000000000000e+00 5.0000000000000000e+00
ITEM: ATOMS id type xs ys zs
1 1 0.0481246 0.365044 0.480839
2 1 0.0544141 0.383217 0.713218
3 1 0.0733705 0.23614 0.672545
4 1 0.088749 0.380215 0.560883
5 1 0.104799 0.507636 0.63625
6 1 0.122882 0.591844 0.760317
7 1 0.142311 0.516145 0.828642
8 1 0.166697 0.482294 0.768331
9 1 0.188625 0.446324 0.661318
10 1 0.197509 0.567648 0.437441
11 1 0.222373 0.537598 0.496759
12 1 0.242063 0.594161 0.347175
13 1 0.26504 0.588409 0.260069
14 1 0.286508 0.682852 0.224251
15 1 0.307707 0.654268 0.122914
16 1 0.327441 0.524641 0.139061
17 1 0.343169 0.450524 0.287789
18 1 0.357821 0.551098 0.47308
19 1 0.379469 0.547828 0.489771
20 1 0.397279 0.431572 0.513524
21 1 0.42722 0.477481 0.49169
22 1 0.453026 0.455765 0.502746
23 1 0.46435 0.506126 0.723872
24 1 0.483725 0.484453 0.585644
25 1 0.497258 0.594676 0.450587
26 1 0.522432 0.635121 0.461614
27 1 0.540355 0.467318 0.408141
28 1 0.559833 0.560904 0.356377
29 1 0.576981 0.528826 0.463755
30 1 0.593385 0.435693 0.48677
31 1 0.618028 0.489155 0.498928
32 1 0.63515 0.646627 0.483733
33 1 0.630087 0.461952 0.650411
34 1 0.638224 0.530332 0.501294
35 1 0.662528 0.560079 0.470693
36 1 0.685357 0.432609 0.484813
37 1 0.70639 0.420867 0.543907
38 1 0.722453 0.487392 0.373861
39 1 0.748011 0.512764 0.390517
40 1 0.771095 0.507202 0.427516
41 1 0.793584 0.468956 0.535389
42 1 0.807448 0.483915 0.701065
43 1 0.827065 0.574799 0.524233
44 1 0.85071 0.445104 0.599298
45 1 0.869718 0.473032 0.672627
46 1 0.888016 0.467699 0.529729
47 1 0.908765 0.405526 0.49902
48 1 0.930433 0.370197 0.391141
49 1 0.931133 0.533552 0.559949
50 1 0.940888 0.542419 0.356505
ITEM: TIMESTEP
700
ITEM: NUMBER OF ATOMS
50
ITEM: BOX BOUNDS pp pp pp
0.0000000000000000e+00 5.1530000000000001e+01
0.0000000000000000e+00 5.0000000000000000e+00
0.0000000000000000e+00 5.0000000000000000e+00
ITEM: ATOMS id type xs ys zs
1 1 0.0564418 0.364311 0.539316
2 1 0.0630845 0.336105 0.736315
3 1 0.080331 0.218201 0.664707
4 1 0.086851 0.425104 0.574639
5 1 0.111946 0.424447 0.641183
6 1 0.125578 0.625751 0.783721
7 1 0.148574 0.565918 0.821555
8 1 0.167915 0.408201 0.738756
9 1 0.187567 0.520709 0.673115
10 1 0.191328 0.50464 0.451807
11 1 0.212848 0.569913 0.389805
12 1 0.237002 0.647558 0.401219
13 1 0.26301 0.628263 0.356847
14 1 0.278911 0.634159 0.170309
15 1 0.301252 0.591352 0.126993
16 1 0.324552 0.542998 0.151819
17 1 0.346789 0.50772 0.20567
18 1 0.360556 0.556552 0.416249
19 1 0.382861 0.536175 0.508295
20 1 0.404178 0.454829 0.493323
21 1 0.428845 0.434753 0.525149
22 1 0.446309 0.497442 0.523941
23 1 0.462466 0.51163 0.721406
24 1 0.482374 0.486943 0.546558
25 1 0.502656 0.588004 0.479338
26 1 0.526278 0.592719 0.493645
27 1 0.547591 0.494524 0.4057
28 1 0.562398 0.536246 0.266333
29 1 0.57532 0.544151 0.50832
30 1 0.596801 0.504337 0.411498
31 1 0.614098 0.595547 0.606989
32 1 0.63654 0.497206 0.437861
33 1 0.636166 0.437072 0.61396
34 1 0.641563 0.594297 0.447135
35 1 0.6637 0.53067 0.48334
36 1 0.684012 0.412155 0.544861
37 1 0.70726 0.400948 0.576849
38 1 0.719967 0.513911 0.403291
39 1 0.743005 0.551551 0.345719
40 1 0.764807 0.470914 0.436552
41 1 0.789974 0.546015 0.551023
42 1 0.80972 0.44607 0.650231
43 1 0.827869 0.509167 0.540027
44 1 0.848748 0.413113 0.618899
45 1 0.864999 0.541872 0.690147
46 1 0.886678 0.475398 0.56087
47 1 0.909179 0.360474 0.476611
48 1 0.932055 0.381839 0.366148
49 1 0.923268 0.512849 0.579546
50 1 0.933779 0.555273 0.342408
ITEM: TIMESTEP
800
ITEM: NUMBER OF ATOMS
50
ITEM: BOX BOUNDS pp pp pp
0.0000000000000000e+00 5.1530000000000001e+01
0.0000000000000000e+00 5.0000000000000000e+00
0.0000000000000000e+00 5.0000000000000000e+00
ITEM: ATOMS id type xs ys zs
1 1 0.0631852 0.371531 0.566023
2 1 0.0718378 0.290638 0.785367
3 1 0.0891523 0.217634 0.64829
4 1 0.0939002 0.448033 0.628142
5 1 0.114399 0.446502 0.689975
6 1 0.132954 0.523334 0.757179
7 1 0.152347 0.592689 0.75416
8 1 0.166155 0.392175 0.725237
9 1 0.183232 0.577725 0.664584
10 1 0.196801 0.497422 0.473156
11 1 0.209614 0.619624 0.308517
12 1 0.229568 0.617147 0.43479
13 1 0.253489 0.687214 0.386131
14 1 0.268048 0.581627 0.20258
15 1 0.294529 0.554765 0.144846
16 1 0.322971 0.551923 0.154531
17 1 0.347859 0.561696 0.189495
18 1 0.367637 0.58061 0.329065
19 1 0.382822 0.42874 0.494404
20 1 0.406794 0.541721 0.482289
21 1 0.426376 0.400705 0.556009
22 1 0.443076 0.532709 0.540784
23 1 0.466157 0.500779 0.675377
24 1 0.483376 0.557348 0.512186
25 1 0.505772 0.534314 0.557107
26 1 0.527007 0.509641 0.505826
27 1 0.551369 0.571125 0.432352
28 1 0.567466 0.488392 0.229242
29 1 0.5768 0.55595 0.465188
30 1 0.599597 0.615373 0.445671
31 1 0.618481 0.581318 0.516934
32 1 0.626063 0.459543 0.391446
33 1 0.642319 0.447442 0.621784
34 1 0.646535 0.599669 0.465416
35 1 0.665171 0.478844 0.494736
36 1 0.682589 0.416166 0.625341
37 1 0.706222 0.401497 0.547089
38 1 0.723994 0.533508 0.452827
39 1 0.743665 0.533122 0.367349
40 1 0.760786 0.529179 0.46852
41 1 0.78178 0.535502 0.555403
42 1 0.804728 0.442789 0.556738
43 1 0.826979 0.441659 0.564032
44 1 0.849279 0.396 0.634336
45 1 0.869753 0.56218 0.585571
46 1 0.888658 0.431452 0.646268
47 1 0.901968 0.421612 0.451723
48 1 0.923345 0.35699 0.377809
49 1 0.917425 0.510329 0.599615
50 1 0.925969 0.572113 0.338556
ITEM: TIMESTEP
900
ITEM: NUMBER OF ATOMS
50
ITEM: BOX BOUNDS pp pp pp
0.0000000000000000e+00 5.1530000000000001e+01
0.0000000000000000e+00 5.0000000000000000e+00
0.0000000000000000e+00 5.0000000000000000e+00
ITEM: ATOMS id type xs ys zs
1 1 0.0695382 0.380273 0.61331
2 1 0.0793522 0.242543 0.810021
3 1 0.0975494 0.221686 0.630625
4 1 0.0923491 0.466408 0.652934
5 1 0.115988 0.423372 0.721668
6 1 0.142509 0.454747 0.76822
7 1 0.161281 0.631322 0.699459
8 1 0.167643 0.414569 0.703669
9 1 0.180078 0.564847 0.573946
10 1 0.204715 0.568296 0.548164
11 1 0.20611 0.625745 0.293984
12 1 0.226845 0.615383 0.4124
13 1 0.248409 0.634705 0.30681
14 1 0.271115 0.580577 0.305747
15 1 0.292399 0.535943 0.238475
16 1 0.316073 0.578902 0.176148
17 1 0.341248 0.600156 0.221362
18 1 0.363485 0.523648 0.258172
19 1 0.38511 0.485215 0.383496
20 1 0.405088 0.515689 0.495682
21 1 0.422218 0.404021 0.567988
22 1 0.44265 0.56102 0.592932
23 1 0.467084 0.518984 0.570175
24 1 0.485563 0.587576 0.51664
25 1 0.509846 0.493252 0.588295
26 1 0.532071 0.47997 0.509609
27 1 0.550409 0.57391 0.424059
28 1 0.566266 0.479908 0.261351
29 1 0.578225 0.56022 0.433529
30 1 0.599624 0.718075 0.469438
31 1 0.621574 0.578438 0.498206
32 1 0.628737 0.362965 0.37849
33 1 0.637206 0.459919 0.567755
34 1 0.651998 0.643971 0.4523
35 1 0.667313 0.444633 0.513375
36 1 0.684061 0.40997 0.669142
37 1 0.703309 0.407863 0.539096
38 1 0.722961 0.548207 0.512889
39 1 0.740989 0.519384 0.335339
40 1 0.76047 0.563843 0.513753
41 1 0.783683 0.519849 0.58281
42 1 0.807171 0.466432 0.46143
43 1 0.824493 0.356611 0.625388
44 1 0.846085 0.465407 0.605427
45 1 0.872012 0.48731 0.52392
46 1 0.886106 0.425259 0.671315
47 1 0.893965 0.465957 0.464736
48 1 0.915713 0.336367 0.401328
49 1 0.912994 0.509817 0.576144
50 1 0.918319 0.586836 0.358849
ITEM: TIMESTEP
1000
ITEM: NUMBER OF ATOMS
50
ITEM: BOX BOUNDS pp pp pp
0.0000000000000000e+00 5.1530000000000001e+01
0.0000000000000000e+00 5.0000000000000000e+00
0.0000000000000000e+00 5.0000000000000000e+00
ITEM: ATOMS id type xs ys zs
1 1 0.0767062 0.37155 0.678492
2 1 0.0873587 0.21068 0.797123
3 1 0.104014 0.225196 0.627439
4 1 0.102972 0.468334 0.715196
5 1 0.123708 0.441239 0.751121
6 1 0.143934 0.459266 0.709776
7 1 0.158878 0.622214 0.680002
8 1 0.172035 0.414515 0.650588
9 1 0.183125 0.535029 0.524099
10 1 0.204203 0.63948 0.570135
11 1 0.204004 0.621594 0.338352
12 1 0.229097 0.62584 0.355289
13 1 0.248993 0.53975 0.239213
14 1 0.269857 0.595422 0.394672
15 1 0.292904 0.555763 0.329498
16 1 0.312873 0.597981 0.239131
17 1 0.337822 0.596684 0.294415
18 1 0.357746 0.458572 0.223778
19 1 0.381351 0.574714 0.253536
20 1 0.397387 0.490737 0.449896
21 1 0.420032 0.436878 0.575779
22 1 0.445918 0.550912 0.601334
23 1 0.467596 0.556576 0.504839
24 1 0.486407 0.593162 0.573927
25 1 0.511037 0.467235 0.525154
26 1 0.534968 0.454711 0.545089
27 1 0.548554 0.564834 0.414496
28 1 0.567568 0.505908 0.327987
29 1 0.58485 0.606335 0.389054
30 1 0.605632 0.687753 0.531677
31 1 0.612711 0.558069 0.351379
32 1 0.628631 0.350036 0.401842
33 1 0.634722 0.517241 0.538768
34 1 0.655818 0.623954 0.446334
35 1 0.669453 0.42602 0.548691
36 1 0.686003 0.405921 0.693499
37 1 0.702099 0.435784 0.536489
38 1 0.721488 0.532061 0.53248
39 1 0.743178 0.531755 0.43542
40 1 0.767152 0.557028 0.515292
41 1 0.784201 0.497542 0.495945
42 1 0.805449 0.47886 0.506248
43 1 0.825891 0.36857 0.608328
44 1 0.842278 0.472631 0.545928
45 1 0.864679 0.417129 0.51849
46 1 0.881714 0.421651 0.667719
47 1 0.889827 0.503713 0.482401
48 1 0.905091 0.317472 0.430553
49 1 0.907033 0.5061 0.554486
50 1 0.911052 0.609597 0.378624
ITEM: TIMESTEP
1100
ITEM: NUMBER OF ATOMS
50
ITEM: BOX BOUNDS pp pp pp
0.0000000000000000e+00 5.1530000000000001e+01
0.0000000000000000e+00 5.0000000000000000e+00
0.0000000000000000e+00 5.0000000000000000e+00
ITEM: ATOMS id type xs ys zs
13 1 0.248838 0.480136 0.256673
16 1 0.311982 0.603713 0.3528
17 1 0.335097 0.532969 0.320503
18 1 0.355369 0.515474 0.24803
19 1 0.378337 0.552698 0.265137
31 1 0.611122 0.507612 0.346544
3 1 0.111703 0.264175 0.652893
48 1 0.891557 0.317645 0.453333
8 1 0.172803 0.429947 0.615157
9 1 0.191758 0.516283 0.450042
10 1 0.201002 0.710258 0.591788
11 1 0.210444 0.627384 0.386763
12 1 0.231536 0.59471 0.25999
14 1 0.26813 0.580027 0.392847
15 1 0.292016 0.615055 0.449542
20 1 0.399409 0.472589 0.361884
21 1 0.416722 0.592842 0.471661
22 1 0.438184 0.479663 0.527464
23 1 0.462519 0.588936 0.481694
24 1 0.488276 0.549711 0.594662
25 1 0.51092 0.478142 0.538211
26 1 0.529005 0.426554 0.560815
27 1 0.545562 0.566881 0.40293
28 1 0.573185 0.548588 0.413296
29 1 0.594 0.663756 0.325631
32 1 0.624167 0.370336 0.378527
33 1 0.632629 0.614807 0.460085
34 1 0.656248 0.557455 0.467787
35 1 0.672151 0.433514 0.580306
37 1 0.699448 0.457566 0.519927
38 1 0.721307 0.530204 0.560239
39 1 0.743257 0.531478 0.515594
40 1 0.769913 0.582492 0.53617
41 1 0.786657 0.459506 0.400384
42 1 0.808345 0.504067 0.539577
43 1 0.82655 0.347571 0.618365
44 1 0.840248 0.502023 0.462234
45 1 0.856246 0.315038 0.5261
46 1 0.876043 0.421626 0.68
47 1 0.887344 0.510096 0.476478
49 1 0.900449 0.510436 0.568483
50 1 0.903727 0.65476 0.3727
30 1 0.607848 0.611076 0.518343
2 1 0.0965433 0.177612 0.788486
1 1 0.0842317 0.363972 0.741974
4 1 0.104995 0.445691 0.744949
5 1 0.131769 0.437496 0.819462
6 1 0.15018 0.419567 0.63263
7 1 0.163617 0.63481 0.641005
36 1 0.68661 0.391052 0.729902
ITEM: TIMESTEP
1200
ITEM: NUMBER OF ATOMS
50
ITEM: BOX BOUNDS pp pp pp
0.0000000000000000e+00 5.1530000000000001e+01
0.0000000000000000e+00 5.0000000000000000e+00
0.0000000000000000e+00 5.0000000000000000e+00
ITEM: ATOMS id type xs ys zs
13 1 0.249722 0.464875 0.296273
16 1 0.311598 0.605575 0.497108
17 1 0.33076 0.467278 0.332979
18 1 0.353653 0.565687 0.28424
19 1 0.37838 0.516721 0.300968
31 1 0.603416 0.491699 0.279573
3 1 0.122188 0.277781 0.667606
48 1 0.880103 0.315396 0.493356
8 1 0.177788 0.433978 0.537
9 1 0.199204 0.522687 0.438566
10 1 0.198653 0.726187 0.519399
11 1 0.223366 0.642508 0.459167
12 1 0.229027 0.559552 0.208717
14 1 0.26908 0.550684 0.398421
15 1 0.287141 0.657505 0.531309
20 1 0.40391 0.502073 0.297322
21 1 0.420924 0.679499 0.338341
22 1 0.438522 0.552233 0.384015
23 1 0.452988 0.497793 0.59367
24 1 0.478584 0.503058 0.493673
25 1 0.503462 0.53061 0.564056
26 1 0.527815 0.467427 0.489655
27 1 0.557428 0.475273 0.488028
28 1 0.571923 0.679042 0.445193
29 1 0.594106 0.60953 0.375967
32 1 0.626458 0.40913 0.375238
33 1 0.634844 0.617669 0.359231
34 1 0.649065 0.49384 0.481491
35 1 0.672263 0.483546 0.585121
37 1 0.698038 0.483045 0.547653
38 1 0.725504 0.520415 0.582453
39 1 0.746953 0.544222 0.600353
40 1 0.768605 0.543558 0.518625
41 1 0.789867 0.483529 0.397776
42 1 0.809731 0.477315 0.536073
43 1 0.824097 0.385282 0.608875
44 1 0.839717 0.452621 0.400383
45 1 0.847517 0.298252 0.558025
46 1 0.866957 0.407745 0.598391
47 1 0.883228 0.560689 0.523041
49 1 0.890254 0.466895 0.544591
50 1 0.895115 0.688531 0.385251
30 1 0.60677 0.596418 0.506418
2 1 0.105854 0.139828 0.771571
1 1 0.0924966 0.352267 0.820889
4 1 0.117364 0.456972 0.830298
5 1 0.136616 0.4224 0.760719
6 1 0.152032 0.441695 0.641661
7 1 0.164581 0.619916 0.597044
36 1 0.692333 0.359567 0.754229
ITEM: TIMESTEP
1300
ITEM: NUMBER OF ATOMS
50
ITEM: BOX BOUNDS pp pp pp
0.0000000000000000e+00 5.1530000000000001e+01
0.0000000000000000e+00 5.0000000000000000e+00
0.0000000000000000e+00 5.0000000000000000e+00
ITEM: ATOMS id type xs ys zs
13 1 0.251973 0.523319 0.35752
16 1 0.308941 0.547967 0.528295
17 1 0.329938 0.55457 0.426878
18 1 0.353192 0.531418 0.365974
19 1 0.376904 0.506913 0.322268
31 1 0.60113 0.487413 0.283492
3 1 0.129893 0.329635 0.724094
48 1 0.867475 0.356699 0.523703
8 1 0.183663 0.459741 0.469293
9 1 0.204036 0.492222 0.411176
10 1 0.207356 0.736137 0.435234
11 1 0.226949 0.663743 0.448925
12 1 0.226921 0.514491 0.2826
14 1 0.27314 0.527448 0.415129
15 1 0.29025 0.62734 0.542629
20 1 0.39848 0.594041 0.253132
21 1 0.423675 0.672171 0.225025
22 1 0.44479 0.624545 0.348385
23 1 0.451725 0.444721 0.503152
24 1 0.476121 0.478589 0.524314
25 1 0.500506 0.501782 0.475158
26 1 0.526826 0.542045 0.499945
27 1 0.550319 0.548089 0.518659
28 1 0.563789 0.670439 0.484129
29 1 0.584671 0.530134 0.40967
32 1 0.626272 0.452861 0.364194
33 1 0.640448 0.584236 0.324885
34 1 0.65082 0.488893 0.497077
35 1 0.667803 0.463988 0.609003
37 1 0.704005 0.521743 0.597576
38 1 0.729431 0.495769 0.58299
39 1 0.748477 0.548595 0.657526
40 1 0.76508 0.50529 0.511346
41 1 0.78602 0.50813 0.386343
42 1 0.809928 0.488371 0.523651
43 1 0.830456 0.385 0.581864
44 1 0.83595 0.412788 0.381861
45 1 0.838819 0.275855 0.586636
46 1 0.857524 0.385177 0.546734
47 1 0.878745 0.523138 0.543752
49 1 0.885848 0.494012 0.54375
50 1 0.885879 0.705782 0.394758
30 1 0.610012 0.561904 0.472118
2 1 0.113316 0.14252 0.747826
1 1 0.10229 0.30638 0.890484
4 1 0.119697 0.443943 0.91182
5 1 0.139936 0.373303 0.75654
6 1 0.160763 0.415987 0.582774
7 1 0.171127 0.650786 0.533144
36 1 0.688691 0.399937 0.692572
ITEM: TIMESTEP
1400
ITEM: NUMBER OF ATOMS
50
ITEM: BOX BOUNDS pp pp pp
0.0000000000000000e+00 5.1530000000000001e+01
0.0000000000000000e+00 5.0000000000000000e+00
0.0000000000000000e+00 5.0000000000000000e+00
ITEM: ATOMS id type xs ys zs
13 1 0.252175 0.552668 0.40365
16 1 0.313756 0.482981 0.534593
17 1 0.334084 0.631223 0.515155
18 1 0.355225 0.4923 0.444787
19 1 0.377924 0.564395 0.320557
31 1 0.60038 0.467351 0.216271
3 1 0.137932 0.327516 0.722946
48 1 0.854734 0.37664 0.540884
8 1 0.189436 0.454069 0.398334
9 1 0.21179 0.492047 0.393531
10 1 0.212269 0.741567 0.363867
11 1 0.23124 0.675023 0.444137
12 1 0.23103 0.471965 0.337534
14 1 0.272277 0.50155 0.41525
15 1 0.292182 0.626501 0.568498
20 1 0.397371 0.669698 0.236354
21 1 0.420436 0.586573 0.203755
22 1 0.442799 0.64322 0.315426
23 1 0.462679 0.494205 0.364147
24 1 0.480231 0.463591 0.527688
25 1 0.496533 0.442081 0.374589
26 1 0.510579 0.615738 0.542151
27 1 0.537357 0.60912 0.540752
28 1 0.561209 0.637573 0.502195
29 1 0.582484 0.50813 0.496824
32 1 0.621331 0.488901 0.332381
33 1 0.643392 0.556434 0.242574
34 1 0.647138 0.510067 0.512142
35 1 0.664995 0.436535 0.673019
37 1 0.709184 0.543083 0.629942
38 1 0.732186 0.482554 0.589155
39 1 0.752731 0.55286 0.698937
40 1 0.765433 0.475478 0.490329
41 1 0.7865 0.518679 0.46396
42 1 0.808358 0.466181 0.481183
43 1 0.827653 0.413341 0.588907
44 1 0.834275 0.353311 0.36778
45 1 0.833083 0.302573 0.552489
46 1 0.854286 0.403542 0.500193
47 1 0.873185 0.513964 0.568944
49 1 0.8739 0.498029 0.520017
50 1 0.877513 0.683676 0.426423
30 1 0.605826 0.52757 0.488411
2 1 0.121155 0.172827 0.744154
1 1 0.112464 0.25488 0.937026
4 1 0.131754 0.42271 0.945127
5 1 0.143681 0.394089 0.744543
6 1 0.16049 0.4574 0.610544
7 1 0.171058 0.617886 0.508935
36 1 0.690317 0.425704 0.659008
ITEM: TIMESTEP
1500
ITEM: NUMBER OF ATOMS
50
ITEM: BOX BOUNDS pp pp pp
0.0000000000000000e+00 5.1530000000000001e+01
0.0000000000000000e+00 5.0000000000000000e+00
0.0000000000000000e+00 5.0000000000000000e+00
ITEM: ATOMS id type xs ys zs
13 1 0.253871 0.589168 0.457571
16 1 0.319364 0.549476 0.543876
17 1 0.34032 0.573041 0.577173
18 1 0.359797 0.562754 0.489547
19 1 0.376113 0.640005 0.340568
31 1 0.602103 0.430086 0.230116
3 1 0.145851 0.338755 0.757138
48 1 0.847554 0.366094 0.560213
8 1 0.194987 0.477862 0.351425
9 1 0.216248 0.524258 0.369143
10 1 0.215132 0.73119 0.281963
11 1 0.235927 0.669619 0.452815
12 1 0.23586 0.424171 0.401277
14 1 0.274244 0.52231 0.45695
15 1 0.297675 0.50325 0.524418
20 1 0.396397 0.65969 0.253001
21 1 0.418208 0.556412 0.255217
22 1 0.444036 0.540972 0.265343
23 1 0.467615 0.620916 0.271454
24 1 0.475508 0.470684 0.456776
25 1 0.497175 0.472946 0.361643
26 1 0.507034 0.595207 0.489579
27 1 0.525887 0.684258 0.539458
28 1 0.549632 0.548794 0.54554
29 1 0.575868 0.524022 0.562735
32 1 0.618485 0.621815 0.259671
33 1 0.643524 0.460478 0.285685
34 1 0.650105 0.494273 0.506095
35 1 0.664036 0.450181 0.643184
37 1 0.711443 0.531132 0.672561
38 1 0.7336 0.485081 0.61845
39 1 0.75574 0.543457 0.710142
40 1 0.764129 0.444715 0.474206
41 1 0.786169 0.534134 0.531813
42 1 0.805152 0.448627 0.425747
43 1 0.822148 0.433264 0.541058
44 1 0.832878 0.34133 0.361494
45 1 0.83122 0.329522 0.598744
46 1 0.848126 0.408577 0.466053
47 1 0.864546 0.492345 0.591539
49 1 0.865364 0.479319 0.492138
50 1 0.870259 0.695446 0.442427
30 1 0.596143 0.485445 0.45865
2 1 0.128476 0.195416 0.740854
1 1 0.122467 0.204474 0.979227
4 1 0.144106 0.39465 0.980365
5 1 0.14235 0.39805 0.728489
6 1 0.162938 0.492912 0.622243
7 1 0.176167 0.583898 0.444727
36 1 0.688024 0.475519 0.629499
ITEM: TIMESTEP
1600
ITEM: NUMBER OF ATOMS
50
ITEM: BOX BOUNDS pp pp pp
0.0000000000000000e+00 5.1530000000000001e+01
0.0000000000000000e+00 5.0000000000000000e+00
0.0000000000000000e+00 5.0000000000000000e+00
ITEM: ATOMS id type xs ys zs
13 1 0.254578 0.62365 0.506822
16 1 0.321139 0.580016 0.547238
17 1 0.345715 0.528793 0.661115
18 1 0.366585 0.612646 0.538568
19 1 0.378472 0.730361 0.328351
31 1 0.603418 0.482036 0.297429
3 1 0.153886 0.355977 0.745365
48 1 0.848753 0.281612 0.549877
8 1 0.19843 0.48402 0.305582
9 1 0.222663 0.520536 0.375041
10 1 0.223963 0.756942 0.230172
11 1 0.234119 0.637762 0.401906
12 1 0.241167 0.413823 0.470288
14 1 0.277144 0.515922 0.484744
15 1 0.300922 0.436311 0.497606
20 1 0.401409 0.615932 0.275153
21 1 0.424712 0.548497 0.306778
22 1 0.445502 0.488709 0.220974
23 1 0.457999 0.692602 0.220526
24 1 0.469524 0.495832 0.332846
25 1 0.494196 0.456934 0.314857
26 1 0.508179 0.603094 0.474489
27 1 0.529042 0.718224 0.542247
28 1 0.540917 0.48496 0.601907
29 1 0.561813 0.550687 0.567152
32 1 0.619961 0.574062 0.208831
33 1 0.634779 0.458861 0.29296
34 1 0.649918 0.490357 0.475506
35 1 0.667812 0.449855 0.649766
37 1 0.7125 0.498277 0.702624
38 1 0.733194 0.495743 0.665226
39 1 0.756414 0.51115 0.672056
40 1 0.765052 0.439136 0.495503
41 1 0.786274 0.528812 0.57844
42 1 0.791447 0.456647 0.349064
43 1 0.81051 0.455325 0.508039
44 1 0.831283 0.349748 0.410199
45 1 0.82882 0.357048 0.644752
46 1 0.842776 0.419133 0.447233