ITEM: TIMESTEP
0
ITEM: NUMBER OF ATOMS
20
ITEM: BOX BOUNDS pp pp pp
0.0000000000000000e+00 2.2430000000000000e+01
0.0000000000000000e+00 5.0000000000000000e+00
0.0000000000000000e+00 5.0000000000000000e+00
ITEM: ATOMS id type xs ys zs
1 1 0.0891663 0.5 0.5
2 1 0.132412 0.5 0.5
3 1 0.175658 0.5 0.5
4 1 0.218903 0.5 0.5
5 1 0.262149 0.5 0.5
6 1 0.305395 0.5 0.5
7 1 0.34864 0.5 0.5
8 1 0.391886 0.5 0.5
9 1 0.435132 0.5 0.5
10 1 0.478377 0.5 0.5
11 1 0.521623 0.5 0.5
12 1 0.564868 0.5 0.5
13 1 0.608114 0.5 0.5
14 1 0.65136 0.5 0.5
15 1 0.694605 0.5 0.5
16 1 0.737851 0.5 0.5
17 1 0.781097 0.5 0.5
18 1 0.824342 0.5 0.5
19 1 0.867588 0.5 0.5
20 1 0.910834 0.5 0.5
ITEM: TIMESTEP
100
ITEM: NUMBER OF ATOMS
20
ITEM: BOX BOUNDS pp pp pp
0.0000000000000000e+00 2.2430000000000000e+01
0.0000000000000000e+00 5.0000000000000000e+00
0.0000000000000000e+00 5.0000000000000000e+00
ITEM: ATOMS id type xs ys zs
1 1 0.0565916 0.439739 0.449691
2 1 0.111701 0.45796 0.425004
3 1 0.157586 0.485475 0.600422
4 1 0.214005 0.526436 0.641468
5 1 0.258386 0.408016 0.618814
6 1 0.305865 0.477193 0.564629
7 1 0.351676 0.47646 0.460901
8 1 0.395449 0.603227 0.517132
9 1 0.439769 0.489888 0.671936
10 1 0.478462 0.556636 0.453966
11 1 0.521363 0.391066 0.559622
12 1 0.559031 0.520188 0.401853
13 1 0.612794 0.606852 0.491274
14 1 0.652747 0.468214 0.307296
15 1 0.699324 0.595944 0.371939
16 1 0.737406 0.533507 0.504667
17 1 0.787328 0.524004 0.509227
18 1 0.835384 0.396337 0.448209
19 1 0.888152 0.483737 0.506864
20 1 0.93698 0.55912 0.495088
ITEM: TIMESTEP
200
ITEM: NUMBER OF ATOMS
20
ITEM: BOX BOUNDS pp pp pp
0.0000000000000000e+00 2.2430000000000000e+01
0.0000000000000000e+00 5.0000000000000000e+00
0.0000000000000000e+00 5.0000000000000000e+00
ITEM: ATOMS id type xs ys zs
1 1 0.0461608 0.399773 0.408171
2 1 0.0992507 0.436437 0.471497
3 1 0.143389 0.484166 0.610807
4 1 0.193303 0.473108 0.711604
5 1 0.247152 0.393633 0.708101
6 1 0.306581 0.447511 0.600829
7 1 0.360408 0.506973 0.483266
8 1 0.400867 0.58645 0.556206
9 1 0.444701 0.566733 0.65796
10 1 0.482216 0.514577 0.546714
11 1 0.525349 0.409461 0.502607
12 1 0.56301 0.528401 0.428086
13 1 0.603668 0.5736 0.356298
14 1 0.648316 0.547884 0.256502
15 1 0.695823 0.623377 0.302373
16 1 0.740033 0.569903 0.465714
17 1 0.795441 0.49303 0.494723
18 1 0.849719 0.401477 0.456148
19 1 0.90386 0.45543 0.490501
20 1 0.950753 0.588077 0.491893
ITEM: TIMESTEP
300
ITEM: NUMBER OF ATOMS
20
ITEM: BOX BOUNDS pp pp pp
0.0000000000000000e+00 2.2430000000000000e+01
0.0000000000000000e+00 5.0000000000000000e+00
0.0000000000000000e+00 5.0000000000000000e+00
ITEM: ATOMS id type xs ys zs
1 1 0.0521591 0.37542 0.385506
2 1 0.0909203 0.425192 0.558151
3 1 0.146049 0.471731 0.612252
4 1 0.1966 0.360445 0.706203
5 1 0.241412 0.504181 0.696734
6 1 0.287634 0.383552 0.635514
7 1 0.334176 0.53242 0.602434
8 1 0.393248 0.550662 0.57078
9 1 0.444727 0.636032 0.700121
10 1 0.485674 0.503708 0.590817
11 1 0.527304 0.348712 0.466194
12 1 0.567428 0.568818 0.468559
13 1 0.601449 0.572815 0.234237
14 1 0.659966 0.615409 0.200871
15 1 0.70564 0.589727 0.344085
16 1 0.768056 0.611856 0.320542
17 1 0.798095 0.426583 0.448218
18 1 0.849436 0.502001 0.506702
19 1 0.900438 0.438342 0.460595
20 1 0.949588 0.582395 0.491485
ITEM: TIMESTEP
400
ITEM: NUMBER OF ATOMS
20
ITEM: BOX BOUNDS pp pp pp
0.0000000000000000e+00 2.2430000000000000e+01
0.0000000000000000e+00 5.0000000000000000e+00
0.0000000000000000e+00 5.0000000000000000e+00
ITEM: ATOMS id type xs ys zs
1 1 0.0694346 0.370515 0.422763
2 1 0.0986927 0.417514 0.603016
3 1 0.144848 0.388147 0.638661
4 1 0.198275 0.340288 0.642758
5 1 0.232051 0.538932 0.672758
6 1 0.278274 0.442408 0.678343
7 1 0.326886 0.49453 0.693435
8 1 0.379529 0.557978 0.681093
9 1 0.435241 0.573544 0.600643
10 1 0.483911 0.486541 0.633285
11 1 0.52957 0.490105 0.497989
12 1 0.572328 0.485551 0.348052
13 1 0.615424 0.597766 0.250634
14 1 0.667568 0.629323 0.260234
15 1 0.716515 0.595789 0.272068
16 1 0.768536 0.553968 0.275153
17 1 0.809546 0.464291 0.372384
18 1 0.845985 0.560603 0.521248
19 1 0.888472 0.466624 0.450684
20 1 0.938914 0.545585 0.484799
ITEM: TIMESTEP
500
ITEM: NUMBER OF ATOMS
20
ITEM: BOX BOUNDS pp pp pp
0.0000000000000000e+00 2.2430000000000000e+01
0.0000000000000000e+00 5.0000000000000000e+00
0.0000000000000000e+00 5.0000000000000000e+00
ITEM: ATOMS id type xs ys zs
1 1 0.0817213 0.356431 0.423731
2 1 0.101068 0.426862 0.671186
3 1 0.150448 0.304493 0.671142
4 1 0.204707 0.331062 0.587327
5 1 0.218986 0.55695 0.640796
6 1 0.275078 0.52265 0.720892
7 1 0.330839 0.446182 0.777996
8 1 0.383127 0.560274 0.74314
9 1 0.418899 0.482708 0.57517
10 1 0.477661 0.519182 0.600775
11 1 0.532933 0.56021 0.484107
12 1 0.568923 0.487233 0.319142
13 1 0.618421 0.585525 0.274905
14 1 0.675711 0.634555 0.354815
15 1 0.721515 0.61719 0.162308
16 1 0.771519 0.484947 0.240359
17 1 0.823427 0.510117 0.3048
18 1 0.837172 0.613845 0.531134
19 1 0.878146 0.482635 0.437473
20 1 0.929698 0.516949 0.478804
ITEM: TIMESTEP
600
ITEM: NUMBER OF ATOMS
20
ITEM: BOX BOUNDS pp pp pp
0.0000000000000000e+00 2.2430000000000000e+01
0.0000000000000000e+00 5.0000000000000000e+00
0.0000000000000000e+00 5.0000000000000000e+00
ITEM: ATOMS id type xs ys zs
1 1 0.0984562 0.360434 0.476975
2 1 0.116453 0.383234 0.697578
3 1 0.159271 0.252397 0.676923
4 1 0.198475 0.359603 0.569068
5 1 0.233117 0.51539 0.642885
6 1 0.278269 0.569518 0.758456
7 1 0.32571 0.506626 0.809565
8 1 0.38244 0.469865 0.747811
9 1 0.435304 0.444628 0.652084
10 1 0.45538 0.577585 0.422166
11 1 0.516848 0.539222 0.473277
12 1 0.572488 0.599979 0.378841
13 1 0.627775 0.546084 0.375304
14 1 0.675707 0.595078 0.278736
15 1 0.725689 0.571021 0.217652
16 1 0.772118 0.504109 0.191713
17 1 0.81658 0.571339 0.248243
18 1 0.823174 0.6539 0.486669
19 1 0.868337 0.498868 0.42429
20 1 0.91841 0.481121 0.471765
ITEM: TIMESTEP
700
ITEM: NUMBER OF ATOMS
20
ITEM: BOX BOUNDS pp pp pp
0.0000000000000000e+00 2.2430000000000000e+01
0.0000000000000000e+00 5.0000000000000000e+00
0.0000000000000000e+00 5.0000000000000000e+00
ITEM: ATOMS id type xs ys zs
1 1 0.116044 0.357962 0.532114
2 1 0.132048 0.345661 0.727555
3 1 0.173753 0.210403 0.676186
4 1 0.193766 0.406985 0.57056
5 1 0.25231 0.431099 0.64782
6 1 0.289493 0.605949 0.796298
7 1 0.345856 0.560166 0.786342
8 1 0.388011 0.394147 0.705641
9 1 0.428929 0.521291 0.652284
10 1 0.458856 0.509861 0.442361
11 1 0.506153 0.604334 0.373508
12 1 0.559054 0.624037 0.485253
13 1 0.619268 0.553778 0.442678
14 1 0.659666 0.531706 0.255636
15 1 0.719289 0.52236 0.277399
16 1 0.770151 0.502247 0.118141
17 1 0.817202 0.665226 0.189576
18 1 0.81195 0.675912 0.443899
19 1 0.856386 0.526508 0.417294
20 1 0.901815 0.450368 0.459454
ITEM: TIMESTEP
800
ITEM: NUMBER OF ATOMS
20
ITEM: BOX BOUNDS pp pp pp
0.0000000000000000e+00 2.2430000000000000e+01
0.0000000000000000e+00 5.0000000000000000e+00
0.0000000000000000e+00 5.0000000000000000e+00
ITEM: ATOMS id type xs ys zs
1 1 0.130322 0.361966 0.55558
2 1 0.150359 0.298951 0.788192
3 1 0.19359 0.209607 0.651832
4 1 0.216613 0.431507 0.639941
5 1 0.262147 0.449883 0.7055
6 1 0.307817 0.499082 0.738047
7 1 0.353966 0.57979 0.724572
8 1 0.387793 0.391806 0.678382
9 1 0.427361 0.567624 0.584671
10 1 0.479729 0.51705 0.513609
11 1 0.510058 0.645592 0.37423
12 1 0.548789 0.545246 0.497589
13 1 0.599922 0.601402 0.387727
14 1 0.65205 0.487836 0.381987
15 1 0.700647 0.47473 0.227211
16 1 0.749462 0.584648 0.190423
17 1 0.79673 0.675651 0.147634
18 1 0.801074 0.708429 0.350288
19 1 0.844835 0.560056 0.414458
20 1 0.886735 0.409145 0.448126
ITEM: TIMESTEP
900
ITEM: NUMBER OF ATOMS
20
ITEM: BOX BOUNDS pp pp pp
0.0000000000000000e+00 2.2430000000000000e+01
0.0000000000000000e+00 5.0000000000000000e+00
0.0000000000000000e+00 5.0000000000000000e+00
ITEM: ATOMS id type xs ys zs
1 1 0.142508 0.367368 0.596822
2 1 0.167096 0.252024 0.80405
3 1 0.206406 0.204861 0.640853
4 1 0.217537 0.454728 0.672091
5 1 0.272027 0.456891 0.767116
6 1 0.330306 0.413542 0.703365
7 1 0.368423 0.613599 0.674664
8 1 0.397207 0.433905 0.639203
9 1 0.436435 0.532932 0.494596
10 1 0.483506 0.572641 0.614475
11 1 0.512077 0.644835 0.397572
12 1 0.554178 0.507682 0.454462
13 1 0.598302 0.558349 0.352539
14 1 0.644388 0.511332 0.436502
15 1 0.676783 0.491188 0.244789
16 1 0.723278 0.617505 0.2313
17 1 0.767468 0.663028 0.119473
18 1 0.797107 0.721819 0.319158
19 1 0.835779 0.582836 0.402404
20 1 0.869189 0.398935 0.434567
ITEM: TIMESTEP
1000
ITEM: NUMBER OF ATOMS
20
ITEM: BOX BOUNDS pp pp pp
0.0000000000000000e+00 2.2430000000000000e+01
0.0000000000000000e+00 5.0000000000000000e+00
0.0000000000000000e+00 5.0000000000000000e+00
ITEM: ATOMS id type xs ys zs
1 1 0.15656 0.356386 0.656342
2 1 0.18034 0.224744 0.793945
3 1 0.219868 0.247846 0.645674
4 1 0.242144 0.428169 0.734604
5 1 0.288443 0.438335 0.748512
6 1 0.334106 0.431308 0.696475
7 1 0.366842 0.59191 0.637757
8 1 0.410816 0.455645 0.580992
9 1 0.453608 0.514692 0.469137
10 1 0.477883 0.620107 0.641561
11 1 0.512023 0.632153 0.454616
12 1 0.553487 0.466738 0.417957
13 1 0.600373 0.523871 0.306138
14 1 0.640005 0.532664 0.488618
15 1 0.651803 0.504787 0.268077
16 1 0.695021 0.653832 0.264854
17 1 0.744553 0.658093 0.157673
18 1 0.795447 0.715542 0.230427
19 1 0.825468 0.611631 0.38587
20 1 0.85121 0.391546 0.420773
ITEM: TIMESTEP
1100
ITEM: NUMBER OF ATOMS
20
ITEM: BOX BOUNDS pp pp pp
0.0000000000000000e+00 2.2430000000000000e+01
0.0000000000000000e+00 5.0000000000000000e+00
0.0000000000000000e+00 5.0000000000000000e+00
ITEM: ATOMS id type xs ys zs
13 1 0.60561 0.470462 0.315242
15 1 0.627209 0.541737 0.289652
16 1 0.669842 0.655592 0.269192
17 1 0.724052 0.679543 0.210323
18 1 0.783552 0.691165 0.159918
3 1 0.230256 0.261682 0.639787
1 1 0.169922 0.352946 0.704636
7 1 0.375896 0.614164 0.580082
8 1 0.42655 0.49351 0.507369
9 1 0.476972 0.495673 0.460615
10 1 0.475019 0.656779 0.636178
11 1 0.5141 0.589106 0.522213
12 1 0.552077 0.470622 0.374802
14 1 0.619885 0.560114 0.527537
19 1 0.813127 0.639162 0.348259
20 1 0.829203 0.397047 0.402236
2 1 0.197383 0.188048 0.797093
4 1 0.243845 0.422469 0.82115
5 1 0.304472 0.430045 0.766311
6 1 0.361026 0.390134 0.667405
ITEM: TIMESTEP
1200
ITEM: NUMBER OF ATOMS
20
ITEM: BOX BOUNDS pp pp pp
0.0000000000000000e+00 2.2430000000000000e+01
0.0000000000000000e+00 5.0000000000000000e+00
0.0000000000000000e+00 5.0000000000000000e+00
ITEM: ATOMS id type xs ys zs
13 1 0.598804 0.431414 0.358479
15 1 0.609663 0.621987 0.312504
16 1 0.660462 0.624774 0.221998
17 1 0.70928 0.727907 0.310462
18 1 0.746475 0.618513 0.146389
3 1 0.245506 0.308078 0.659932
1 1 0.182993 0.356678 0.767178
7 1 0.391049 0.56282 0.528251
8 1 0.443845 0.547059 0.443022
9 1 0.492347 0.49948 0.472285
10 1 0.478963 0.670188 0.58472
11 1 0.521523 0.50839 0.583985
12 1 0.550012 0.516785 0.349227
14 1 0.59885 0.562891 0.554415
19 1 0.791883 0.649088 0.259061
20 1 0.802581 0.445142 0.373182
2 1 0.215954 0.140041 0.795533
4 1 0.277411 0.39014 0.847532
5 1 0.32062 0.392064 0.760474
6 1 0.361779 0.426562 0.671373
ITEM: TIMESTEP
1300
ITEM: NUMBER OF ATOMS
20
ITEM: BOX BOUNDS pp pp pp
0.0000000000000000e+00 2.2430000000000000e+01
0.0000000000000000e+00 5.0000000000000000e+00
0.0000000000000000e+00 5.0000000000000000e+00
ITEM: ATOMS id type xs ys zs
13 1 0.587568 0.398362 0.393697
15 1 0.604072 0.675389 0.350971
16 1 0.649388 0.622075 0.23169
17 1 0.689542 0.711466 0.335688
18 1 0.71195 0.583271 0.189175
3 1 0.260265 0.349153 0.703676
1 1 0.199081 0.328425 0.834754
7 1 0.414727 0.503358 0.455922
8 1 0.462272 0.59818 0.387837
9 1 0.503047 0.460447 0.454066
10 1 0.494453 0.677648 0.560831
11 1 0.520297 0.48799 0.585595
12 1 0.547985 0.54253 0.391575
14 1 0.57982 0.603534 0.539801
19 1 0.765898 0.650435 0.172481
20 1 0.777177 0.497765 0.335331
2 1 0.231097 0.135011 0.769537
4 1 0.287929 0.354282 0.906916
5 1 0.336387 0.328077 0.753209
6 1 0.377043 0.492604 0.647248
ITEM: TIMESTEP
1400
ITEM: NUMBER OF ATOMS
20
ITEM: BOX BOUNDS pp pp pp
0.0000000000000000e+00 2.2430000000000000e+01
0.0000000000000000e+00 5.0000000000000000e+00
0.0000000000000000e+00 5.0000000000000000e+00
ITEM: ATOMS id type xs ys zs
13 1 0.578189 0.387717 0.443939
15 1 0.60087 0.728819 0.393154
16 1 0.638217 0.611336 0.231408
17 1 0.672268 0.706266 0.367405
18 1 0.690825 0.549719 0.224465
3 1 0.272926 0.354537 0.75266
1 1 0.214282 0.294479 0.883594
7 1 0.430283 0.491612 0.458528
8 1 0.468897 0.609765 0.353208
9 1 0.509698 0.452299 0.457463
10 1 0.506989 0.678267 0.525889
11 1 0.523521 0.456351 0.586302
12 1 0.542294 0.587096 0.42831
14 1 0.561818 0.59161 0.506975
19 1 0.736462 0.643777 0.0911035
20 1 0.754919 0.546077 0.301244
2 1 0.244902 0.164873 0.753872
4 1 0.312274 0.317875 0.892191
5 1 0.352459 0.369378 0.749912
6 1 0.387909 0.458148 0.598378
ITEM: TIMESTEP
1500
ITEM: NUMBER OF ATOMS
20
ITEM: BOX BOUNDS pp pp pp
0.0000000000000000e+00 2.2430000000000000e+01
0.0000000000000000e+00 5.0000000000000000e+00
0.0000000000000000e+00 5.0000000000000000e+00
ITEM: ATOMS id type xs ys zs
13 1 0.564314 0.38968 0.479012
15 1 0.597178 0.723793 0.418604
16 1 0.620164 0.619205 0.248911
17 1 0.660935 0.704439 0.398109
18 1 0.678204 0.538204 0.24115
3 1 0.283973 0.368049 0.788646
1 1 0.226478 0.26597 0.924224
7 1 0.44536 0.502494 0.499625
8 1 0.480464 0.590957 0.329785
9 1 0.515007 0.44637 0.436933
10 1 0.510888 0.682826 0.530916
11 1 0.52091 0.44794 0.595198
12 1 0.546264 0.59978 0.441164
14 1 0.555829 0.622023 0.446347
19 1 0.705993 0.618034 0.0489267
20 1 0.73653 0.594643 0.267998
2 1 0.255503 0.18291 0.746864
4 1 0.334042 0.287279 0.876021
5 1 0.367635 0.418468 0.747448
6 1 0.394329 0.396937 0.53412
ITEM: TIMESTEP
1600
ITEM: NUMBER OF ATOMS
20
ITEM: BOX BOUNDS pp pp pp
0.0000000000000000e+00 2.2430000000000000e+01
0.0000000000000000e+00 5.0000000000000000e+00
0.0000000000000000e+00 5.0000000000000000e+00
ITEM: ATOMS id type xs ys zs
13 1 0.559031 0.388498 0.507097
15 1 0.596683 0.746279 0.451655
16 1 0.610513 0.62115 0.254847
17 1 0.645425 0.698882 0.416762
18 1 0.666143 0.521224 0.251755
3 1 0.299559 0.37087 0.843425
1 1 0.238881 0.232198 0.960925
7 1 0.452952 0.491612 0.488761
8 1 0.483865 0.582786 0.339079
9 1 0.515703 0.456867 0.442338
10 1 0.498773 0.682421 0.533366
11 1 0.520428 0.441644 0.595993
12 1 0.547975 0.603766 0.454193
14 1 0.556708 0.611203 0.401577
19 1 0.680677 0.592749 0.0393968
20 1 0.71494 0.64345 0.20857
2 1 0.264703 0.209274 0.740362
4 1 0.354099 0.276968 0.830427
5 1 0.383056 0.442513 0.715295
6 1 0.409885 0.385646 0.524175
ITEM: TIMESTEP
1700
ITEM: NUMBER OF ATOMS
20
ITEM: BOX BOUNDS pp pp pp
0.0000000000000000e+00 2.2430000000000000e+01
0.0000000000000000e+00 5.0000000000000000e+00
0.0000000000000000e+00 5.0000000000000000e+00
ITEM: ATOMS id type xs ys zs
13 1 0.563822 0.395241 0.546346
15 1 0.595281 0.763922 0.480461
16 1 0.592366 0.629394 0.271717
17 1 0.631266 0.67498 0.431096
18 1 0.647787 0.528123 0.2598
3 1 0.326534 0.330021 0.881732
1 1 0.257529 0.18392 0.983059
7 1 0.471296 0.479867 0.487905
8 1 0.488223 0.628451 0.30834
9 1 0.507872 0.44324 0.464767
10 1 0.488679 0.657913 0.522875
11 1 0.517535 0.456511 0.582319
12 1 0.544817 0.636564 0.460518
14 1 0.563708 0.558702 0.364939
19 1 0.649525 0.567881 0.0544176
20 1 0.686016 0.694494 0.134051
2 1 0.279363 0.271843 0.773353
4 1 0.368669 0.291716 0.781409
5 1 0.397019 0.47483 0.695714
6 1 0.422692 0.332385 0.515183
ITEM: TIMESTEP
1800
ITEM: NUMBER OF ATOMS
20
ITEM: BOX BOUNDS pp pp pp
0.0000000000000000e+00 2.2430000000000000e+01
0.0000000000000000e+00 5.0000000000000000e+00
0.0000000000000000e+00 5.0000000000000000e+00
ITEM: ATOMS id type xs ys zs
13 1 0.562572 0.4355 0.580838
15 1 0.584822 0.745507 0.515453
16 1 0.570766 0.624864 0.280755
17 1 0.609443 0.664676 0.462098
18 1 0.627477 0.506058 0.288483
3 1 0.352073 0.285068 0.913554
1 1 0.281717 0.149951 0.97935
7 1 0.478127 0.462349 0.446101
8 1 0.507233 0.638272 0.32907
9 1 0.498315 0.421265 0.454054
10 1 0.480562 0.635053 0.522008
11 1 0.515421 0.487882 0.591491
12 1 0.546392 0.647307 0.446473
14 1 0.576149 0.55712 0.351537
19 1 0.617333 0.553969 0.0443158
20 1 0.650487 0.745807 0.0355999
2 1 0.295975 0.327439 0.844752
4 1 0.386024 0.293091 0.73614
5 1 0.417597 0.491882 0.641946
6 1 0.441516 0.32694 0.53598
ITEM: TIMESTEP
1900
ITEM: NUMBER OF ATOMS
20
ITEM: BOX BOUNDS pp pp pp
0.0000000000000000e+00 2.2430000000000000e+01
0.0000000000000000e+00 5.0000000000000000e+00
0.0000000000000000e+00 5.0000000000000000e+00
ITEM: ATOMS id type xs ys zs
13 1 0.562494 0.472645 0.599315
15 1 0.570047 0.718586 0.49538
16 1 0.560892 0.64157 0.256702
17 1 0.588446 0.616759 0.484668
18 1 0.616278 0.496794 0.296347
3 1 0.371963 0.244949 0.888355
1 1 0.307955 0.130342 0.968066
7 1 0.476401 0.434174 0.372588
8 1 0.519266 0.61414 0.349795
9 1 0.498512 0.42701 0.441039
10 1 0.471522 0.59762 0.525325
11 1 0.520209 0.515155 0.623147
12 1 0.54626 0.718698 0.540389
14 1 0.570174 0.523396 0.36536
19 1 0.59283 0.576497 0.0671175
20 1 0.607264 0.764483 0.925186
2 1 0.32644 0.358575 0.945794
4 1 0.398228 0.333009 0.71064
5 1 0.432781 0.496427 0.613534
6 1 0.462037 0.31917 0.531251
ITEM: TIMESTEP
2000
ITEM: NUMBER OF ATOMS
20
ITEM: BOX BOUNDS pp pp pp
0.0000000000000000e+00 2.2430000000000000e+01
0.0000000000000000e+00 5.0000000000000000e+00
0.0000000000000000e+00 5.0000000000000000e+00
ITEM: ATOMS id type xs ys zs
13 1 0.550244 0.509659 0.606601
15 1 0.552185 0.709748 0.478147
16 1 0.563469 0.668067 0.235956
17 1 0.576273 0.569617 0.440565
18 1 0.606532 0.525866 0.254536
3 1 0.384511 0.222888 0.886574
1 1 0.332839 0.136107 0.945482
7 1 0.485391 0.437316 0.328963
8 1 0.516983 0.61972 0.393668
9 1 0.49846 0.381148 0.435313
10 1 0.479154 0.612034 0.504665
11 1 0.520194 0.539643 0.640434
12 1 0.549287 0.739366 0.620869
14 1 0.559132 0.477342 0.394129
19 1 0.580921 0.62225 0.0896081
20 1 0.568461 0.729597 0.883275
2 1 0.354625 0.349262 0.0303211
4 1 0.403533 0.332664 0.701651
5 1 0.43742 0.485648 0.595019
6 1 0.480385 0.332057 0.534227
ITEM: TIMESTEP
2100
ITEM: NUMBER OF ATOMS
20
ITEM: BOX BOUNDS pp pp pp
0.0000000000000000e+00 2.2430000000000000e+01
0.0000000000000000e+00 5.0000000000000000e+00
0.0000000000000000e+00 5.0000000000000000e+00
ITEM: ATOMS id type xs ys zs
2 1 0.3785 0.315855 0.102661
7 1 0.493197 0.415352 0.275066
18 1 0.59632 0.538104 0.219297
19 1 0.569143 0.703696 0.0765218
16 1 0.560441 0.709607 0.234091
9 1 0.498217 0.361545 0.468549
10 1 0.490001 0.610378 0.469956
5 1 0.445754 0.454977 0.574514
6 1 0.499201 0.399956 0.557321
13 1 0.52968 0.532392 0.641383
8 1 0.50375 0.61749 0.427995
11 1 0.524075 0.562514 0.621672
14 1 0.553396 0.460324 0.425502
17 1 0.562319 0.549637 0.412192
15 1 0.552812 0.677342 0.448219
12 1 0.55079 0.736631 0.679789
1 1 0.35911 0.169022 0.941804
3 1 0.393972 0.195734 0.885471
4 1 0.409843 0.336028 0.677209
20 1 0.52948 0.653419 0.86079
ITEM: TIMESTEP
2200
ITEM: NUMBER OF ATOMS
20
ITEM: BOX BOUNDS pp pp pp
0.0000000000000000e+00 2.2430000000000000e+01
0.0000000000000000e+00 5.0000000000000000e+00
0.0000000000000000e+00 5.0000000000000000e+00
ITEM: ATOMS id type xs ys zs
2 1 0.410964 0.257985 0.134575
7 1 0.511564 0.410092 0.250655
18 1 0.56517 0.611764 0.170306
19 1 0.545884 0.708652 0.000264235
16 1 0.554431 0.725711 0.241761
9 1 0.496909 0.358854 0.518918
10 1 0.498139 0.588011 0.429767
5 1 0.452511 0.424369 0.566081
6 1 0.496354 0.357408 0.490834
13 1 0.524998 0.621569 0.643858
8 1 0.499434 0.604977 0.457109
11 1 0.535419 0.571916 0.630759
14 1 0.549077 0.44767 0.487131
17 1 0.537403 0.55634 0.366182
15 1 0.545761 0.673012 0.450543
12 1 0.560248 0.75718 0.749676
1 1 0.385557 0.192323 0.912699
3 1 0.404271 0.232392 0.910655
4 1 0.418948 0.327402 0.675096
20 1 0.506958 0.572374 0.913129
ITEM: TIMESTEP
2300
ITEM: NUMBER OF ATOMS
20
ITEM: BOX BOUNDS pp pp pp
0.0000000000000000e+00 2.2430000000000000e+01
0.0000000000000000e+00 5.0000000000000000e+00
0.0000000000000000e+00 5.0000000000000000e+00
ITEM: ATOMS id type xs ys zs
2 1 0.444727 0.178168 0.125663
7 1 0.508583 0.417745 0.223831
18 1 0.535673 0.685558 0.119777
19 1 0.507382 0.70143 0.881864
16 1 0.551982 0.757718 0.206089
9 1 0.49676 0.33362 0.581206
10 1 0.493382 0.575653 0.525955
5 1 0.455412 0.442702 0.53823
6 1 0.498424 0.336503 0.433752
13 1 0.526545 0.678525 0.64846
8 1 0.488927 0.507164 0.392654
11 1 0.537457 0.604937 0.658253
14 1 0.549941 0.478039 0.573948
17 1 0.559084 0.576398 0.371151
15 1 0.529849 0.693067 0.427207
12 1 0.567726 0.721824 0.803319
1 1 0.423741 0.23264 0.930949
3 1 0.416275 0.275441 0.953434
4 1 0.422173 0.292939 0.683382
20 1 0.485957 0.509928 0.920875
ITEM: TIMESTEP
2400
ITEM: NUMBER OF ATOMS
20
ITEM: BOX BOUNDS pp pp pp
0.0000000000000000e+00 2.2430000000000000e+01
0.0000000000000000e+00 5.0000000000000000e+00
0.0000000000000000e+00 5.0000000000000000e+00
ITEM: ATOMS id type xs ys zs
2 1 0.467299 0.151145 0.0828247
7 1 0.501249 0.386336 0.182864
18 1 0.517646 0.670001 0.118035
19 1 0.491874 0.675952 0.909286
16 1 0.52895 0.825578 0.181647
9 1 0.504891 0.3459 0.620417
10 1 0.488131 0.555938 0.594078
5 1 0.452958 0.410407 0.540047
6 1 0.49827 0.376338 0.388335
13 1 0.528814 0.745476 0.706556
8 1 0.48441 0.412933 0.382012
11 1 0.537189 0.647167 0.658555
14 1 0.53571 0.520716 0.588157
17 1 0.564791 0.6312 0.2596
15 1 0.524595 0.657424 0.382281
12 1 0.571467 0.694796 0.836838
1 1 0.456048 0.267627 0.920051
3 1 0.441626 0.270207 0.957918
4 1 0.433137 0.307283 0.74912
20 1 0.470943 0.447579 0.941378
ITEM: TIMESTEP
2500
ITEM: NUMBER OF ATOMS
20
ITEM: BOX BOUNDS pp pp pp
0.0000000000000000e+00 2.2430000000000000e+01
0.0000000000000000e+00 5.0000000000000000e+00
0.0000000000000000e+00 5.0000000000000000e+00
ITEM: ATOMS id type xs ys zs
2 1 0.492453 0.100261 0.079846
7 1 0.489267 0.387634 0.17534
18 1 0.499901 0.609715 0.155353
19 1 0.494509 0.698689 0.931688
16 1 0.51112 0.815611 0.198831
9 1 0.505291 0.356192 0.606179
10 1 0.480786 0.568921 0.644016
5 1 0.458039 0.374338 0.537653
6 1 0.498673 0.441548 0.372912
13 1 0.527126 0.751124 0.743921
8 1 0.491452 0.331546 0.37711
11 1 0.531404 0.663354 0.672671
14 1 0.523513 0.618491 0.542885
17 1 0.557677 0.710705 0.144491
15 1 0.522602 0.628617 0.343779
12 1 0.569947 0.663987 0.847788
1 1 0.475227 0.203476 0.888352
3 1 0.464599 0.255941 0.990213
4 1 0.442339 0.344566 0.775551
20 1 0.464073 0.475285 0.971421
ITEM: TIMESTEP
2600
ITEM: NUMBER OF ATOMS
20
ITEM: BOX BOUNDS pp pp pp
0.0000000000000000e+00 2.2430000000000000e+01
0.0000000000000000e+00 5.0000000000000000e+00
0.0000000000000000e+00 5.0000000000000000e+00
ITEM: ATOMS id type xs ys zs
2 1 0.520527 0.0485747 0.0794333
7 1 0.473395 0.378909 0.179158
18 1 0.503952 0.621738 0.154727
19 1 0.496526 0.702832 0.945884
16 1 0.490759 0.81602 0.216217
9 1 0.512202 0.38436 0.599498
10 1 0.475129 0.562659 0.703373
5 1 0.460281 0.373972 0.574595
6 1 0.487702 0.470572 0.379422
13 1 0.520539 0.756413 0.778542
8 1 0.49825 0.26991 0.366145
11 1 0.520516 0.671856 0.728932
14 1 0.513687 0.679103 0.50628
17 1 0.531869 0.742987 0.0352872
15 1 0.529671 0.612919 0.276195
12 1 0.564161 0.623872 0.846227
1 1 0.495037 0.144826 0.878206
3 1 0.479195 0.208221 0.98775
4 1 0.464283 0.385661 0.788225
20 1 0.462319 0.544594 0.975902
ITEM: TIMESTEP
2700
ITEM: NUMBER OF ATOMS
20
ITEM: BOX BOUNDS pp pp pp
0.0000000000000000e+00 2.2430000000000000e+01
0.0000000000000000e+00 5.0000000000000000e+00
0.0000000000000000e+00 5.0000000000000000e+00
ITEM: ATOMS id type xs ys zs
2 1 0.535841 0.0169984 0.0829045
7 1 0.465508 0.345674 0.21626
18 1 0.504046 0.62335 0.159686
19 1 0.496746 0.701489 0.986936
16 1 0.490254 0.763301 0.151925
9 1 0.504551 0.447572 0.551588
10 1 0.478713 0.55377 0.713933
5 1 0.461006 0.354178 0.637451
6 1 0.474781 0.525306 0.419915
13 1 0.530764 0.704841 0.690236
8 1 0.506679 0.283824 0.381356
11 1 0.509197 0.715837 0.77588
14 1 0.502582 0.714139 0.496969
17 1 0.497374 0.77983 0.962937
15 1 0.52336 0.662202 0.301971
12 1 0.551902 0.619585 0.875115
1 1 0.513751 0.0947326 0.841532
3 1 0.504474 0.168182 0.959735
4 1 0.488172 0.37233 0.827442
20 1 0.460298 0.552859 0.966229
ITEM: TIMESTEP
2800
ITEM: NUMBER OF ATOMS
20
ITEM: BOX BOUNDS pp pp pp
0.0000000000000000e+00 2.2430000000000000e+01
0.0000000000000000e+00 5.0000000000000000e+00
0.0000000000000000e+00 5.0000000000000000e+00
ITEM: ATOMS id type xs ys zs
2 1 0.549347 0.965703 0.046652
7 1 0.463237 0.389286 0.303637
18 1 0.502011 0.69214 0.124993
19 1 0.492678 0.762155 0.907301
16 1 0.477256 0.711737 0.23028
9 1 0.499604 0.510697 0.514738
10 1 0.480679 0.594169 0.72375
5 1 0.469238 0.328604 0.657267
6 1 0.456292 0.502926 0.515133
13 1 0.530745 0.657572 0.641958
8 1 0.515012 0.318334 0.387363
11 1 0.521761 0.777817 0.724796
14 1 0.48891 0.701174 0.511322
17 1 0.467155 0.715989 0.989579
15 1 0.521607 0.653224 0.325529
12 1 0.529741 0.637233 0.900641
1 1 0.537672 0.015001 0.845515
3 1 0.525279 0.164786 0.911055
4 1 0.509154 0.364388 0.806645
20 1 0.46262 0.537066 0.931846
ITEM: TIMESTEP
2900
ITEM: NUMBER OF ATOMS
20
ITEM: BOX BOUNDS pp pp pp
0.0000000000000000e+00 2.2430000000000000e+01
0.0000000000000000e+00 5.0000000000000000e+00
0.0000000000000000e+00 5.0000000000000000e+00
ITEM: ATOMS id type xs ys zs
2 1 0.555652 0.955548 0.0124575
7 1 0.470479 0.448938 0.405905
18 1 0.493997 0.77148 0.0230746
19 1 0.470706 0.806541 0.832838
16 1 0.462025 0.640444 0.291248
9 1 0.484909 0.490216 0.527925
10 1 0.497637 0.640093 0.720994
5 1 0.475681 0.346462 0.702531
6 1 0.455177 0.499415 0.610149
13 1 0.51771 0.587532 0.629526
8 1 0.521108 0.360458 0.367915
11 1 0.529865 0.809896 0.659593
14 1 0.480693 0.754785 0.529272
17 1 0.444867 0.629392 0.0738405
15 1 0.512331 0.621873 0.386335
12 1 0.51615 0.646106 0.860609
1 1 0.55382 0.945582 0.783688
3 1 0.551617 0.147453 0.87822
4 1 0.533461 0.338978 0.806238
20 1 0.472114 0.558807 0.897639
ITEM: TIMESTEP
3000
ITEM: NUMBER OF ATOMS
20
ITEM: BOX BOUNDS pp pp pp
0.0000000000000000e+00 2.2430000000000000e+01
0.0000000000000000e+00 5.0000000000000000e+00
0.0000000000000000e+00 5.0000000000000000e+00
ITEM: ATOMS id type xs ys zs
2 1 0.557713 0.947615 0.994366
7 1 0.473662 0.440098 0.528964
18 1 0.473012 0.766113 0.958796
19 1 0.452623 0.773552 0.718763
16 1 0.4539 0.602744 0.368457
9 1 0.476349 0.476626 0.518875
10 1 0.501646 0.602594 0.678307
5 1 0.487157 0.392638 0.756958
6 1 0.450905 0.542281 0.68139
13 1 0.512613 0.577675 0.625608
8 1 0.515637 0.415415 0.367682
11 1 0.531549 0.799569 0.606501
14 1 0.477552 0.744842 0.553772
17 1 0.450566 0.600475 0.128774
15 1 0.510655 0.62675 0.423642
12 1 0.522278 0.714328 0.836068
1 1 0.571294 0.894228 0.744316
3 1 0.570962 0.134311 0.845302
4 1 0.549133 0.342424 0.784568
20 1 0.460795 0.605723 0.878891
ITEM: TIMESTEP
3100
ITEM: NUMBER OF ATOMS
20
ITEM: BOX BOUNDS pp pp pp
0.0000000000000000e+00 2.2430000000000000e+01
0.0000000000000000e+00 5.0000000000000000e+00
0.0000000000000000e+00 5.0000000000000000e+00
ITEM: ATOMS id type xs ys zs
17 1 0.459738 0.625302 0.152541
7 1 0.482504 0.403717 0.581544
16 1 0.459011 0.614035 0.384137
9 1 0.476496 0.439644 0.583528
10 1 0.520031 0.560977 0.630958
13 1 0.508452 0.612651 0.597916
8 1 0.510855 0.4204 0.377015
15 1 0.513794 0.638985 0.416687
14 1 0.467338 0.721562 0.562163
11 1 0.528715 0.80307 0.558282
3 1 0.580852 0.171272 0.808367
5 1 0.494789 0.449831 0.791715
6 1 0.450057 0.505776 0.711522
20 1 0.458156 0.687233 0.941457
4 1 0.543173 0.341578 0.776359
18 1 0.456282 0.690356 0.932244
19 1 0.4313 0.771376 0.736932
2 1 0.559799 0.940476 0.930547
12 1 0.518008 0.761885 0.790946
1 1 0.580652 0.839875 0.735139
ITEM: TIMESTEP
3200
ITEM: NUMBER OF ATOMS
20
ITEM: BOX BOUNDS pp pp pp
0.0000000000000000e+00 2.2430000000000000e+01
0.0000000000000000e+00 5.0000000000000000e+00
0.0000000000000000e+00 5.0000000000000000e+00
ITEM: ATOMS id type xs ys zs
17 1 0.472189 0.677286 0.133262
7 1 0.498962 0.405187 0.65289
16 1 0.457 0.591516 0.39025
9 1 0.490626 0.425513 0.616333
10 1 0.53112 0.557725 0.592529
13 1 0.514981 0.674914 0.54071
8 1 0.498953 0.38276 0.377714
15 1 0.501056 0.675417 0.473156
14 1 0.458733 0.654666 0.586844
11 1 0.541644 0.791648 0.538092
3 1 0.575549 0.210502 0.791325
5 1 0.504858 0.500206 0.885804
6 1 0.451732 0.457823 0.757729
20 1 0.456152 0.784974 0.946544
4 1 0.5284 0.30519 0.756148
18 1 0.440893 0.572605 0.929354
19 1 0.417392 0.765303 0.772928
2 1 0.568446 0.975329 0.808165
12 1 0.50836 0.805562 0.734713
1 1 0.582954 0.785875 0.715509
ITEM: TIMESTEP
3300
ITEM: NUMBER OF ATOMS
20
ITEM: BOX BOUNDS pp pp pp
0.0000000000000000e+00 2.2430000000000000e+01
0.0000000000000000e+00 5.0000000000000000e+00
0.0000000000000000e+00 5.0000000000000000e+00
ITEM: ATOMS id type xs ys zs
17 1 0.466023 0.644908 0.110946
7 1 0.513021 0.438221 0.63656
16 1 0.457299 0.58071 0.317644
9 1 0.507159 0.490813 0.658567
10 1 0.550109 0.582435 0.562624
13 1 0.498519 0.667301 0.503613
8 1 0.48141 0.385319 0.445791
15 1 0.487458 0.653139 0.44499
14 1 0.463337 0.548826 0.642144
11 1 0.551227 0.834682 0.581027
3 1 0.565127 0.247799 0.7453
5 1 0.508013 0.512464 0.895626
6 1 0.463229 0.426647 0.806297
20 1 0.452849 0.868548 0.935725
4 1 0.516975 0.301713 0.802532
18 1 0.433661 0.546332 0.996683
19 1 0.416189 0.702758 0.846206
2 1 0.574533 0.0014069 0.676759
12 1 0.511263 0.84632 0.686673
1 1 0.582602 0.719657 0.704295
ITEM: TIMESTEP
3400
ITEM: NUMBER OF ATOMS
20
ITEM: BOX BOUNDS pp pp pp
0.0000000000000000e+00 2.2430000000000000e+01
0.0000000000000000e+00 5.0000000000000000e+00
0.0000000000000000e+00 5.0000000000000000e+00
ITEM: ATOMS id type xs ys zs
17 1 0.468297 0.615194 0.0778874
7 1 0.506668 0.522126 0.690675
16 1 0.452215 0.518666 0.272345
9 1 0.520214 0.530441 0.622603
10 1 0.570423 0.626291 0.558202
13 1 0.48745 0.65942 0.522954
8 1 0.478403 0.43198 0.503182
15 1 0.487551 0.628756 0.49161
14 1 0.450077 0.55052 0.686777
11 1 0.547944 0.836625 0.511381
3 1 0.546528 0.155433 0.67885
5 1 0.51829 0.522821 0.892526
6 1 0.483874 0.362798 0.833731
20 1 0.441579 0.91711 0.893581
4 1 0.519419 0.272862 0.86994
18 1 0.43124 0.497456 0.0177687
19 1 0.420193 0.673433 0.910506
2 1 0.59537 0.0317721 0.610589
12 1 0.493347 0.828732 0.627853