ITEM: TIMESTEP
0
ITEM: NUMBER OF ATOMS
20
ITEM: BOX BOUNDS pp pp pp
0.0000000000000000e+00 2.2430000000000000e+01
0.0000000000000000e+00 5.0000000000000000e+00
0.0000000000000000e+00 5.0000000000000000e+00
ITEM: ATOMS id type xs ys zs
1 1 0.0891663 0.5 0.5
2 1 0.132412 0.5 0.5
3 1 0.175658 0.5 0.5
4 1 0.218903 0.5 0.5
5 1 0.262149 0.5 0.5
6 1 0.305395 0.5 0.5
7 1 0.34864 0.5 0.5
8 1 0.391886 0.5 0.5
9 1 0.435132 0.5 0.5
10 1 0.478377 0.5 0.5
11 1 0.521623 0.5 0.5
12 1 0.564868 0.5 0.5
13 1 0.608114 0.5 0.5
14 1 0.65136 0.5 0.5
15 1 0.694605 0.5 0.5
16 1 0.737851 0.5 0.5
17 1 0.781097 0.5 0.5
18 1 0.824342 0.5 0.5
19 1 0.867588 0.5 0.5
20 1 0.910834 0.5 0.5
ITEM: TIMESTEP
100
ITEM: NUMBER OF ATOMS
20
ITEM: BOX BOUNDS pp pp pp
0.0000000000000000e+00 2.2430000000000000e+01
0.0000000000000000e+00 5.0000000000000000e+00
0.0000000000000000e+00 5.0000000000000000e+00
ITEM: ATOMS id type xs ys zs
1 1 0.0556663 0.430258 0.441344
2 1 0.111227 0.451559 0.417699
3 1 0.155111 0.482813 0.612338
4 1 0.213303 0.527391 0.663694
5 1 0.257728 0.397466 0.637081
6 1 0.306051 0.472258 0.574206
7 1 0.352493 0.474892 0.458702
8 1 0.396367 0.615498 0.521035
9 1 0.440409 0.492164 0.689969
10 1 0.477883 0.557177 0.457338
11 1 0.521263 0.386373 0.558432
12 1 0.558504 0.519794 0.395886
13 1 0.613783 0.617868 0.482041
14 1 0.652762 0.470796 0.283143
15 1 0.699886 0.605513 0.353639
16 1 0.737146 0.540378 0.500312
17 1 0.788637 0.528882 0.511105
18 1 0.836126 0.379895 0.440482
19 1 0.888796 0.481859 0.507157
20 1 0.936858 0.567167 0.494398
ITEM: TIMESTEP
200
ITEM: NUMBER OF ATOMS
20
ITEM: BOX BOUNDS pp pp pp
0.0000000000000000e+00 2.2430000000000000e+01
0.0000000000000000e+00 5.0000000000000000e+00
0.0000000000000000e+00 5.0000000000000000e+00
ITEM: ATOMS id type xs ys zs
1 1 0.0474432 0.38367 0.393352
2 1 0.0987322 0.427318 0.486304
3 1 0.143229 0.478898 0.620221
4 1 0.190755 0.452161 0.734808
5 1 0.246877 0.399673 0.734145
6 1 0.306458 0.432901 0.614586
7 1 0.359249 0.514484 0.506929
8 1 0.399384 0.584224 0.569157
9 1 0.444015 0.587189 0.668281
10 1 0.482828 0.504086 0.568482
11 1 0.52603 0.413276 0.488148
12 1 0.56472 0.533304 0.42708
13 1 0.601566 0.568236 0.317038
14 1 0.650373 0.573806 0.232338
15 1 0.699044 0.630047 0.281639
16 1 0.74307 0.580528 0.441537
17 1 0.794245 0.486346 0.48214
18 1 0.849616 0.405631 0.459094
19 1 0.904467 0.448678 0.484131
20 1 0.947897 0.595544 0.490592
ITEM: TIMESTEP
300
ITEM: NUMBER OF ATOMS
20
ITEM: BOX BOUNDS pp pp pp
0.0000000000000000e+00 2.2430000000000000e+01
0.0000000000000000e+00 5.0000000000000000e+00
0.0000000000000000e+00 5.0000000000000000e+00
ITEM: ATOMS id type xs ys zs
1 1 0.0591152 0.357309 0.379068
2 1 0.0896437 0.412644 0.587649
3 1 0.146655 0.449126 0.626351
4 1 0.197304 0.340181 0.717366
5 1 0.236087 0.502127 0.714997
6 1 0.283043 0.379573 0.674926
7 1 0.331848 0.53404 0.643428
8 1 0.391373 0.546659 0.603766
9 1 0.447037 0.648631 0.689905
10 1 0.487144 0.488674 0.628905
11 1 0.527038 0.38916 0.445709
12 1 0.575732 0.566948 0.435317
13 1 0.600273 0.560413 0.199371
14 1 0.655764 0.645484 0.189828
15 1 0.706529 0.606252 0.308449
16 1 0.772757 0.615631 0.283229
17 1 0.799476 0.420537 0.424846
18 1 0.848812 0.51354 0.504694
19 1 0.898271 0.431051 0.452443
20 1 0.946099 0.592021 0.489751
ITEM: TIMESTEP
400
ITEM: NUMBER OF ATOMS
20
ITEM: BOX BOUNDS pp pp pp
0.0000000000000000e+00 2.2430000000000000e+01
0.0000000000000000e+00 5.0000000000000000e+00
0.0000000000000000e+00 5.0000000000000000e+00
ITEM: ATOMS id type xs ys zs
1 1 0.0806206 0.351764 0.434717
2 1 0.0999876 0.40117 0.636559
3 1 0.144395 0.33928 0.666279
4 1 0.198733 0.316949 0.635937
5 1 0.22636 0.536228 0.692478
6 1 0.274 0.465394 0.730369
7 1 0.326191 0.48062 0.749535
8 1 0.378144 0.569845 0.73011
9 1 0.431748 0.533026 0.601365
10 1 0.486061 0.504705 0.625036
11 1 0.5362 0.54829 0.510764
12 1 0.567296 0.466305 0.300907
13 1 0.617336 0.608318 0.225085
14 1 0.67453 0.643702 0.244228
15 1 0.719065 0.619848 0.218303
16 1 0.765448 0.535047 0.244077
17 1 0.812744 0.486908 0.322621
18 1 0.842961 0.575348 0.509128
19 1 0.883858 0.470291 0.44217
20 1 0.934321 0.546962 0.480332
ITEM: TIMESTEP
500
ITEM: NUMBER OF ATOMS
20
ITEM: BOX BOUNDS pp pp pp
0.0000000000000000e+00 2.2430000000000000e+01
0.0000000000000000e+00 5.0000000000000000e+00
0.0000000000000000e+00 5.0000000000000000e+00
ITEM: ATOMS id type xs ys zs
1 1 0.0979772 0.340059 0.460292
2 1 0.107872 0.390597 0.701422
3 1 0.151263 0.24896 0.701004
4 1 0.199614 0.312455 0.578391
5 1 0.223148 0.52978 0.669057
6 1 0.275887 0.574817 0.78163
7 1 0.32722 0.449541 0.832166
8 1 0.380166 0.527914 0.767905
9 1 0.421428 0.458399 0.619343
10 1 0.475917 0.555162 0.552396
11 1 0.531168 0.576984 0.463847
12 1 0.568435 0.546216 0.320386
13 1 0.619589 0.56961 0.285175
14 1 0.676398 0.635804 0.284746
15 1 0.725869 0.633264 0.134594
16 1 0.770745 0.455026 0.218861
17 1 0.821759 0.56573 0.247341
18 1 0.829206 0.624104 0.483531
19 1 0.872656 0.491872 0.427124
20 1 0.923683 0.513706 0.470788
ITEM: TIMESTEP
600
ITEM: NUMBER OF ATOMS
20
ITEM: BOX BOUNDS pp pp pp
0.0000000000000000e+00 2.2430000000000000e+01
0.0000000000000000e+00 5.0000000000000000e+00
0.0000000000000000e+00 5.0000000000000000e+00
ITEM: ATOMS id type xs ys zs
1 1 0.117761 0.339131 0.50949
2 1 0.124372 0.352619 0.761453
3 1 0.169673 0.179424 0.69595
4 1 0.19788 0.383531 0.59834
5 1 0.240869 0.456465 0.672352
6 1 0.277123 0.593077 0.795936
7 1 0.331322 0.524114 0.847445
8 1 0.381912 0.416081 0.7551
9 1 0.435518 0.48319 0.706584
10 1 0.442388 0.576026 0.424375
11 1 0.512642 0.551472 0.3944
12 1 0.571177 0.64721 0.418175
13 1 0.626798 0.569179 0.372186
14 1 0.674585 0.597975 0.231318
15 1 0.724946 0.513711 0.214244
16 1 0.773985 0.51457 0.130557
17 1 0.813471 0.639912 0.176506
18 1 0.811444 0.669981 0.414204
19 1 0.861003 0.524684 0.422322
20 1 0.911133 0.467647 0.459063
ITEM: TIMESTEP
700
ITEM: NUMBER OF ATOMS
20
ITEM: BOX BOUNDS pp pp pp
0.0000000000000000e+00 2.2430000000000000e+01
0.0000000000000000e+00 5.0000000000000000e+00
0.0000000000000000e+00 5.0000000000000000e+00
ITEM: ATOMS id type xs ys zs
1 1 0.139881 0.337073 0.581142
2 1 0.150587 0.273295 0.798639
3 1 0.190905 0.196752 0.680039
4 1 0.204721 0.427364 0.667152
5 1 0.256707 0.383748 0.689458
6 1 0.298487 0.54954 0.800546
7 1 0.347917 0.571929 0.772778
8 1 0.386075 0.400456 0.739163
9 1 0.416341 0.548484 0.614738
10 1 0.471718 0.50452 0.498564
11 1 0.499227 0.645101 0.372737
12 1 0.54641 0.594091 0.470944
13 1 0.609951 0.632123 0.418018
14 1 0.65715 0.512985 0.283999
15 1 0.715304 0.462265 0.215504
16 1 0.763894 0.544193 0.102751
17 1 0.807659 0.712779 0.104106
18 1 0.802878 0.695756 0.336733
19 1 0.847332 0.56682 0.414158
20 1 0.886855 0.440726 0.43883
ITEM: TIMESTEP
800
ITEM: NUMBER OF ATOMS
20
ITEM: BOX BOUNDS pp pp pp
0.0000000000000000e+00 2.2430000000000000e+01
0.0000000000000000e+00 5.0000000000000000e+00
0.0000000000000000e+00 5.0000000000000000e+00
ITEM: ATOMS id type xs ys zs
1 1 0.15974 0.337343 0.643134
2 1 0.176466 0.211255 0.823034
3 1 0.212086 0.232514 0.685536
4 1 0.218919 0.446768 0.743073
5 1 0.270249 0.360107 0.727785
6 1 0.322634 0.45948 0.766378
7 1 0.354285 0.601053 0.692903
8 1 0.40103 0.443018 0.684933
9 1 0.427118 0.524517 0.497247
10 1 0.473936 0.540629 0.581985
11 1 0.496658 0.659583 0.462093
12 1 0.546776 0.57441 0.433048
13 1 0.601575 0.542101 0.368568
14 1 0.648268 0.494551 0.388351
15 1 0.681038 0.530544 0.190606
16 1 0.736835 0.619137 0.210324
17 1 0.778702 0.681509 0.0232723
18 1 0.796002 0.715267 0.243945
19 1 0.834962 0.622517 0.415439
20 1 0.862719 0.403697 0.418345
ITEM: TIMESTEP
900
ITEM: NUMBER OF ATOMS
20
ITEM: BOX BOUNDS pp pp pp
0.0000000000000000e+00 2.2430000000000000e+01
0.0000000000000000e+00 5.0000000000000000e+00
0.0000000000000000e+00 5.0000000000000000e+00
ITEM: ATOMS id type xs ys zs
1 1 0.178313 0.325097 0.712844
2 1 0.196388 0.153131 0.837869
3 1 0.232194 0.256889 0.674125
4 1 0.239735 0.462923 0.806833
5 1 0.283577 0.367012 0.766124
6 1 0.339213 0.39237 0.732891
7 1 0.360273 0.593954 0.630273
8 1 0.411828 0.518271 0.622043
9 1 0.442224 0.476522 0.429526
10 1 0.459787 0.566343 0.659765
11 1 0.509248 0.669028 0.530434
12 1 0.551003 0.574072 0.37561
13 1 0.598035 0.437151 0.323699
14 1 0.64272 0.502977 0.441619
15 1 0.659424 0.632176 0.226336
16 1 0.705489 0.667495 0.209848
17 1 0.742559 0.639349 0.076234
18 1 0.791683 0.700958 0.178327
19 1 0.82066 0.645593 0.366349
20 1 0.835649 0.41869 0.39925
ITEM: TIMESTEP
1000
ITEM: NUMBER OF ATOMS
20
ITEM: BOX BOUNDS pp pp pp
0.0000000000000000e+00 2.2430000000000000e+01
0.0000000000000000e+00 5.0000000000000000e+00
0.0000000000000000e+00 5.0000000000000000e+00
ITEM: ATOMS id type xs ys zs
1 1 0.195415 0.322056 0.77843
2 1 0.222892 0.0959937 0.82521
3 1 0.245739 0.290034 0.703661
4 1 0.258683 0.463398 0.861629
5 1 0.307506 0.386106 0.814718
6 1 0.352609 0.33529 0.667225
7 1 0.367514 0.57648 0.579856
8 1 0.417465 0.567271 0.559343
9 1 0.462686 0.448437 0.431617
10 1 0.462369 0.633291 0.601355
11 1 0.521096 0.582702 0.559615
12 1 0.551781 0.54676 0.408446
13 1 0.585475 0.408264 0.319353
14 1 0.626968 0.524441 0.456737
15 1 0.622675 0.708789 0.285416
16 1 0.678009 0.727711 0.246634
17 1 0.723925 0.602472 0.134251
18 1 0.785111 0.67435 0.0884401
19 1 0.803114 0.667848 0.298673
20 1 0.80897 0.438306 0.37939
ITEM: TIMESTEP
1100
ITEM: NUMBER OF ATOMS
20
ITEM: BOX BOUNDS pp pp pp
0.0000000000000000e+00 2.2430000000000000e+01
0.0000000000000000e+00 5.0000000000000000e+00
0.0000000000000000e+00 5.0000000000000000e+00
ITEM: ATOMS id type xs ys zs
13 1 0.585273 0.363853 0.298776
17 1 0.710403 0.683051 0.216015
15 1 0.609719 0.766205 0.348265
16 1 0.658384 0.698453 0.230089
18 1 0.744478 0.612339 0.0578586
19 1 0.782016 0.679239 0.219508
6 1 0.35921 0.342306 0.641131
7 1 0.382882 0.516094 0.528181
8 1 0.423503 0.608892 0.455746
9 1 0.473737 0.442112 0.47141
10 1 0.48083 0.688261 0.533265
11 1 0.5137 0.495293 0.633683
12 1 0.551288 0.552648 0.455969
14 1 0.602877 0.560692 0.428258
20 1 0.781068 0.465148 0.358073
1 1 0.216362 0.288013 0.863606
2 1 0.246207 0.0779191 0.793723
3 1 0.26065 0.319374 0.742694
4 1 0.283678 0.450869 0.900592
5 1 0.333737 0.38924 0.823157
ITEM: TIMESTEP
1200
ITEM: NUMBER OF ATOMS
20
ITEM: BOX BOUNDS pp pp pp
0.0000000000000000e+00 2.2430000000000000e+01
0.0000000000000000e+00 5.0000000000000000e+00
0.0000000000000000e+00 5.0000000000000000e+00
ITEM: ATOMS id type xs ys zs
13 1 0.570945 0.364425 0.316801
17 1 0.689774 0.743302 0.264913
15 1 0.608133 0.816526 0.383605
16 1 0.640357 0.676257 0.234823
18 1 0.699894 0.576602 0.108365
19 1 0.756039 0.656467 0.121417
6 1 0.363901 0.322597 0.607972
7 1 0.40228 0.470438 0.463752
8 1 0.442129 0.618928 0.367547
9 1 0.468408 0.474994 0.508381
10 1 0.509137 0.682558 0.492346
11 1 0.51085 0.487532 0.612089
12 1 0.551171 0.46919 0.501226
14 1 0.582291 0.618485 0.417104
20 1 0.75287 0.52596 0.311844
1 1 0.241847 0.230619 0.925864
2 1 0.267172 0.0961704 0.778461
3 1 0.275243 0.339963 0.793389
4 1 0.305233 0.431945 0.947019
5 1 0.362326 0.397041 0.843081
ITEM: TIMESTEP
1300
ITEM: NUMBER OF ATOMS
20
ITEM: BOX BOUNDS pp pp pp
0.0000000000000000e+00 2.2430000000000000e+01
0.0000000000000000e+00 5.0000000000000000e+00
0.0000000000000000e+00 5.0000000000000000e+00
ITEM: ATOMS id type xs ys zs
13 1 0.568217 0.417768 0.314424
17 1 0.67199 0.800243 0.289436
15 1 0.601554 0.7972 0.411068
16 1 0.624002 0.665054 0.252301
18 1 0.673938 0.568346 0.166282
19 1 0.712733 0.61772 0.0371115
6 1 0.383219 0.387759 0.599106
7 1 0.419399 0.41429 0.431047
8 1 0.446608 0.580096 0.331915
9 1 0.478714 0.565808 0.509776
10 1 0.522551 0.626053 0.462835
11 1 0.498104 0.474091 0.624898
12 1 0.55193 0.423671 0.569397
14 1 0.564938 0.63958 0.371706
20 1 0.725608 0.574844 0.269346
1 1 0.265304 0.178019 0.985902
2 1 0.286796 0.129441 0.770545
3 1 0.292749 0.345138 0.8372
4 1 0.336462 0.406834 0.960333
5 1 0.375186 0.388045 0.805369
ITEM: TIMESTEP
1400
ITEM: NUMBER OF ATOMS
20
ITEM: BOX BOUNDS pp pp pp
0.0000000000000000e+00 2.2430000000000000e+01
0.0000000000000000e+00 5.0000000000000000e+00
0.0000000000000000e+00 5.0000000000000000e+00
ITEM: ATOMS id type xs ys zs
13 1 0.562365 0.471028 0.366332
17 1 0.653792 0.823532 0.296376
15 1 0.601284 0.790363 0.457783
16 1 0.61177 0.654835 0.271799
18 1 0.651051 0.578557 0.217074
19 1 0.673422 0.575972 0.00575538
6 1 0.398099 0.452981 0.554973
7 1 0.437245 0.342713 0.388009
8 1 0.455228 0.551727 0.290797
9 1 0.474717 0.640533 0.522057
10 1 0.528001 0.568547 0.474817
11 1 0.494931 0.461145 0.620962
12 1 0.547944 0.379076 0.572872
14 1 0.562491 0.679744 0.269932
20 1 0.700386 0.63254 0.202316
1 1 0.289151 0.121713 0.014985
2 1 0.301408 0.155488 0.781521
3 1 0.305647 0.367348 0.883837
4 1 0.359827 0.384285 0.00820521
5 1 0.391241 0.367875 0.799596
ITEM: TIMESTEP
1500
ITEM: NUMBER OF ATOMS
20
ITEM: BOX BOUNDS pp pp pp
0.0000000000000000e+00 2.2430000000000000e+01
0.0000000000000000e+00 5.0000000000000000e+00
0.0000000000000000e+00 5.0000000000000000e+00
ITEM: ATOMS id type xs ys zs
13 1 0.557082 0.535101 0.422507
17 1 0.630743 0.827022 0.302396
15 1 0.586542 0.781964 0.472882
16 1 0.601718 0.62239 0.242657
18 1 0.63416 0.601978 0.251751
19 1 0.630613 0.546048 0.0154945
6 1 0.424307 0.443419 0.56042
7 1 0.44419 0.320854 0.393073
8 1 0.466985 0.517996 0.307577
9 1 0.481109 0.701688 0.465956
10 1 0.521936 0.536075 0.483985
11 1 0.491358 0.414523 0.635138
12 1 0.538355 0.372609 0.571928
14 1 0.577066 0.724405 0.245038
20 1 0.666576 0.672983 0.112497
1 1 0.31546 0.0643912 0.0268487
2 1 0.316831 0.195881 0.821937
3 1 0.329995 0.375515 0.955036
4 1 0.38287 0.357691 0.949228
5 1 0.402104 0.387465 0.76365
ITEM: TIMESTEP
1600
ITEM: NUMBER OF ATOMS
20
ITEM: BOX BOUNDS pp pp pp
0.0000000000000000e+00 2.2430000000000000e+01
0.0000000000000000e+00 5.0000000000000000e+00
0.0000000000000000e+00 5.0000000000000000e+00
ITEM: ATOMS id type xs ys zs
13 1 0.55126 0.654358 0.471984
17 1 0.602972 0.843756 0.314316
15 1 0.575321 0.73692 0.486737
16 1 0.586395 0.632842 0.285232
18 1 0.621517 0.587446 0.276275
19 1 0.584278 0.527924 0.070171
6 1 0.457577 0.475361 0.519948
7 1 0.459176 0.295338 0.382969
8 1 0.48038 0.499436 0.337834
9 1 0.493323 0.709682 0.397366
10 1 0.509492 0.522472 0.49893
11 1 0.493592 0.361076 0.640853
12 1 0.533588 0.43131 0.504709
14 1 0.57304 0.663095 0.217114
20 1 0.621388 0.71392 0.99241
1 1 0.346743 0.0176484 0.0122308
2 1 0.334511 0.214624 0.889065
3 1 0.360009 0.389141 0.0392421
4 1 0.404703 0.314908 0.950021
5 1 0.410734 0.408742 0.712595
ITEM: TIMESTEP
1700
ITEM: NUMBER OF ATOMS
20
ITEM: BOX BOUNDS pp pp pp
0.0000000000000000e+00 2.2430000000000000e+01
0.0000000000000000e+00 5.0000000000000000e+00
0.0000000000000000e+00 5.0000000000000000e+00
ITEM: ATOMS id type xs ys zs
13 1 0.544062 0.73167 0.519781
17 1 0.586522 0.791011 0.322994
15 1 0.561922 0.689167 0.485234
16 1 0.568198 0.564798 0.281939
18 1 0.616017 0.625045 0.24469
19 1 0.569161 0.569197 0.153545
6 1 0.457829 0.484806 0.494288
7 1 0.470231 0.279348 0.404215
8 1 0.486327 0.503171 0.336901
9 1 0.503108 0.712212 0.356811
10 1 0.503461 0.515931 0.504236
11 1 0.51895 0.311173 0.622972
12 1 0.525936 0.500904 0.505594
14 1 0.542095 0.705027 0.237922
20 1 0.563648 0.682982 0.914418
1 1 0.374743 0.00281504 0.983876
2 1 0.35545 0.224041 0.986082
3 1 0.393082 0.37435 0.0813851
4 1 0.420896 0.321225 0.871818
5 1 0.438365 0.411127 0.691298
ITEM: TIMESTEP
1800
ITEM: NUMBER OF ATOMS
20
ITEM: BOX BOUNDS pp pp pp
0.0000000000000000e+00 2.2430000000000000e+01
0.0000000000000000e+00 5.0000000000000000e+00
0.0000000000000000e+00 5.0000000000000000e+00
ITEM: ATOMS id type xs ys zs
13 1 0.534103 0.812372 0.497044
17 1 0.569631 0.733595 0.333146
15 1 0.543717 0.652473 0.495932
16 1 0.551403 0.519758 0.270311
18 1 0.602434 0.639385 0.222351
19 1 0.566539 0.575977 0.0841231
6 1 0.456209 0.50383 0.434574
7 1 0.483697 0.281816 0.43602
8 1 0.475084 0.48992 0.294812
9 1 0.488322 0.702125 0.422755
10 1 0.514456 0.506873 0.510099
11 1 0.537607 0.301932 0.554614
12 1 0.535402 0.56199 0.566049
14 1 0.535297 0.803287 0.277763
20 1 0.516267 0.605547 0.953595
1 1 0.39807 0.0137849 0.957162
2 1 0.381973 0.223488 0.0745937
3 1 0.423918 0.340001 0.115874
4 1 0.424932 0.316485 0.837904
5 1 0.460941 0.41536 0.661278
ITEM: TIMESTEP
1900
ITEM: NUMBER OF ATOMS
20
ITEM: BOX BOUNDS pp pp pp
0.0000000000000000e+00 2.2430000000000000e+01
0.0000000000000000e+00 5.0000000000000000e+00
0.0000000000000000e+00 5.0000000000000000e+00
ITEM: ATOMS id type xs ys zs
13 1 0.525969 0.797144 0.541749
17 1 0.547828 0.692625 0.375969
15 1 0.535957 0.690154 0.404272
16 1 0.524989 0.476139 0.334575
18 1 0.582462 0.644905 0.161613
19 1 0.548285 0.599287 0.984295
6 1 0.458943 0.504205 0.434911
7 1 0.503496 0.332743 0.446063
8 1 0.469894 0.479347 0.291008
9 1 0.482021 0.675421 0.457146
10 1 0.501116 0.4514 0.50751
11 1 0.554926 0.374937 0.496737
12 1 0.54278 0.587633 0.565173
14 1 0.524979 0.866044 0.313647
20 1 0.493673 0.513187 0.0586093
1 1 0.41866 0.0554834 0.939206
2 1 0.409403 0.190413 0.145846
3 1 0.455754 0.306792 0.0437405
4 1 0.446559 0.361149 0.842821
5 1 0.472308 0.40099 0.655109
ITEM: TIMESTEP
2000
ITEM: NUMBER OF ATOMS
20
ITEM: BOX BOUNDS pp pp pp
0.0000000000000000e+00 2.2430000000000000e+01
0.0000000000000000e+00 5.0000000000000000e+00
0.0000000000000000e+00 5.0000000000000000e+00
ITEM: ATOMS id type xs ys zs
13 1 0.511982 0.789299 0.502271
17 1 0.541336 0.649471 0.394121
15 1 0.525926 0.728802 0.388138
16 1 0.52721 0.489825 0.268944
18 1 0.537708 0.669651 0.122441
19 1 0.506388 0.592423 0.938315
6 1 0.463778 0.492006 0.428382
7 1 0.497357 0.332121 0.517476
8 1 0.473961 0.449653 0.336127
9 1 0.489289 0.61268 0.462858
10 1 0.516739 0.426679 0.490131
11 1 0.561619 0.43377 0.381604
12 1 0.547374 0.62163 0.589116
14 1 0.511808 0.947432 0.37114
20 1 0.487944 0.442419 0.0970351
1 1 0.43969 0.112003 0.952305
2 1 0.444111 0.167263 0.181572
3 1 0.486652 0.261147 0.0303306
4 1 0.455265 0.401535 0.905188
5 1 0.473862 0.38019 0.642507
ITEM: TIMESTEP
2100
ITEM: NUMBER OF ATOMS
20
ITEM: BOX BOUNDS pp pp pp
0.0000000000000000e+00 2.2430000000000000e+01
0.0000000000000000e+00 5.0000000000000000e+00
0.0000000000000000e+00 5.0000000000000000e+00
ITEM: ATOMS id type xs ys zs
2 1 0.48386 0.163725 0.189241
3 1 0.497801 0.168997 0.964035
20 1 0.469602 0.466034 0.132897
16 1 0.516814 0.507994 0.233804
18 1 0.496903 0.662445 0.141409
7 1 0.49333 0.317701 0.56698
6 1 0.471002 0.477816 0.462796
8 1 0.474559 0.349218 0.339001
9 1 0.486211 0.536264 0.472604
5 1 0.467092 0.413648 0.673028
17 1 0.535343 0.731399 0.320266
10 1 0.534353 0.404939 0.457382
11 1 0.578813 0.56271 0.411361
12 1 0.548531 0.592748 0.578084
13 1 0.517528 0.789732 0.556358
15 1 0.51135 0.749948 0.298062
14 1 0.50615 0.964084 0.396563
1 1 0.459199 0.170701 0.963553
4 1 0.476292 0.361167 0.902338
19 1 0.475265 0.608728 0.94024
ITEM: TIMESTEP
2200
ITEM: NUMBER OF ATOMS
20
ITEM: BOX BOUNDS pp pp pp
0.0000000000000000e+00 2.2430000000000000e+01
0.0000000000000000e+00 5.0000000000000000e+00
0.0000000000000000e+00 5.0000000000000000e+00
ITEM: ATOMS id type xs ys zs
2 1 0.515237 0.178674 0.15871
3 1 0.504367 0.0978366 0.931501
20 1 0.458787 0.471492 0.185339
16 1 0.502141 0.520998 0.264895
18 1 0.467554 0.649008 0.224297
7 1 0.490818 0.29825 0.561432
6 1 0.480334 0.486732 0.459341
8 1 0.483213 0.24974 0.344947
9 1 0.497107 0.456622 0.465943
5 1 0.464944 0.458013 0.691111
17 1 0.520574 0.755933 0.20825
10 1 0.544651 0.470729 0.38948
11 1 0.578652 0.635628 0.428558
12 1 0.540575 0.566511 0.580667
13 1 0.529934 0.820648 0.593667
15 1 0.496372 0.767693 0.225114
14 1 0.499237 0.931513 0.40629
1 1 0.479102 0.228771 0.00766668
4 1 0.491772 0.353013 0.888834
19 1 0.454628 0.602195 0.983958
ITEM: TIMESTEP
2300
ITEM: NUMBER OF ATOMS
20
ITEM: BOX BOUNDS pp pp pp
0.0000000000000000e+00 2.2430000000000000e+01
0.0000000000000000e+00 5.0000000000000000e+00
0.0000000000000000e+00 5.0000000000000000e+00
ITEM: ATOMS id type xs ys zs
2 1 0.544356 0.193324 0.105796
3 1 0.508148 0.121406 0.957703
20 1 0.445773 0.439503 0.258271
16 1 0.498026 0.56263 0.286328
18 1 0.452821 0.647868 0.285614
7 1 0.488622 0.258828 0.556055
6 1 0.491875 0.516362 0.500616
8 1 0.497044 0.185239 0.330773
9 1 0.506703 0.365507 0.450647
5 1 0.479544 0.482241 0.713506
17 1 0.486344 0.735435 0.101794
10 1 0.544399 0.539309 0.346661
11 1 0.571268 0.71999 0.455804
12 1 0.533468 0.582673 0.547751
13 1 0.53303 0.799335 0.563317
15 1 0.481597 0.778145 0.201955
14 1 0.499632 0.858084 0.417881
1 1 0.499234 0.301761 0.048728
4 1 0.501157 0.318102 0.814101
19 1 0.436958 0.594258 0.0566989
ITEM: TIMESTEP
2400
ITEM: NUMBER OF ATOMS
20
ITEM: BOX BOUNDS pp pp pp
0.0000000000000000e+00 2.2430000000000000e+01
0.0000000000000000e+00 5.0000000000000000e+00
0.0000000000000000e+00 5.0000000000000000e+00
ITEM: ATOMS id type xs ys zs
2 1 0.565964 0.219426 0.0349138
3 1 0.517322 0.14751 0.982653
20 1 0.440178 0.42946 0.33557
16 1 0.483261 0.594861 0.239811
18 1 0.451496 0.67876 0.333373
7 1 0.487873 0.238975 0.477544
6 1 0.482545 0.492272 0.486012
8 1 0.516695 0.12247 0.32649
9 1 0.536271 0.327416 0.374299
5 1 0.493864 0.508245 0.757591
17 1 0.443805 0.655048 0.0926814
10 1 0.523829 0.610517 0.397992
11 1 0.560406 0.793544 0.447395
12 1 0.541217 0.572239 0.535059
13 1 0.540374 0.814197 0.543565
15 1 0.459205 0.804583 0.172446
14 1 0.495664 0.760256 0.404687
1 1 0.52885 0.387045 0.143089
4 1 0.513679 0.281429 0.75671
19 1 0.417501 0.561746 0.158118
ITEM: TIMESTEP
2500
ITEM: NUMBER OF ATOMS
20
ITEM: BOX BOUNDS pp pp pp
0.0000000000000000e+00 2.2430000000000000e+01
0.0000000000000000e+00 5.0000000000000000e+00
0.0000000000000000e+00 5.0000000000000000e+00
ITEM: ATOMS id type xs ys zs
2 1 0.579302 0.297316 0.993359
3 1 0.524171 0.216709 0.976052
20 1 0.439569 0.433393 0.411128
16 1 0.462939 0.585328 0.204792
18 1 0.442616 0.679542 0.325295
7 1 0.491206 0.268961 0.399728
6 1 0.476963 0.459743 0.513362
8 1 0.533898 0.140578 0.341176
9 1 0.551908 0.331263 0.38688
5 1 0.516025 0.481932 0.669602
17 1 0.409895 0.550225 0.169725
10 1 0.528588 0.552194 0.42751
11 1 0.53212 0.772757 0.435636
12 1 0.553441 0.567385 0.520431
13 1 0.527745 0.815634 0.460075
15 1 0.448093 0.820853 0.238816
14 1 0.48888 0.782003 0.363147
1 1 0.569136 0.464723 0.136933
4 1 0.521787 0.244271 0.738851
19 1 0.401715 0.535191 0.287501
ITEM: TIMESTEP
2600
ITEM: NUMBER OF ATOMS
20
ITEM: BOX BOUNDS pp pp pp
0.0000000000000000e+00 2.2430000000000000e+01
0.0000000000000000e+00 5.0000000000000000e+00
0.0000000000000000e+00 5.0000000000000000e+00
ITEM: ATOMS id type xs ys zs
2 1 0.587722 0.374575 0.962943
3 1 0.539493 0.277213 0.938692
20 1 0.429246 0.406889 0.418487
16 1 0.435382 0.599424 0.188753
18 1 0.422745 0.630855 0.307996
7 1 0.498248 0.333339 0.296855
6 1 0.494748 0.433054 0.528761
8 1 0.540102 0.151639 0.379196
9 1 0.572988 0.347951 0.460577
5 1 0.542852 0.433772 0.64886
17 1 0.389605 0.472174 0.303987
10 1 0.53167 0.536209 0.444945
11 1 0.502394 0.71808 0.415343
12 1 0.551278 0.590042 0.482041
13 1 0.534471 0.803917 0.421745
15 1 0.426679 0.805028 0.256454
14 1 0.483356 0.768841 0.337436
1 1 0.604078 0.547071 0.0885075
4 1 0.532154 0.234825 0.743695
19 1 0.380789 0.535101 0.374728
ITEM: TIMESTEP
2700
ITEM: NUMBER OF ATOMS
20
ITEM: BOX BOUNDS pp pp pp
0.0000000000000000e+00 2.2430000000000000e+01
0.0000000000000000e+00 5.0000000000000000e+00
0.0000000000000000e+00 5.0000000000000000e+00
ITEM: ATOMS id type xs ys zs
2 1 0.598668 0.46718 0.941484
3 1 0.548798 0.333533 0.935621
20 1 0.414957 0.419009 0.409751
16 1 0.398898 0.562946 0.235932
18 1 0.409518 0.597784 0.299268
7 1 0.511541 0.386256 0.267619
6 1 0.513249 0.381919 0.515792
8 1 0.539155 0.242223 0.408352
9 1 0.587529 0.338941 0.486689
5 1 0.553533 0.418205 0.666778
17 1 0.380282 0.417847 0.380706
10 1 0.548124 0.519149 0.416014
11 1 0.488082 0.592419 0.42834
12 1 0.53675 0.631869 0.414548
13 1 0.521896 0.823964 0.34992
15 1 0.420448 0.764673 0.308989
14 1 0.473754 0.75373 0.312434
1 1 0.641037 0.619087 0.0382102
4 1 0.539849 0.197202 0.721183
19 1 0.373933 0.532064 0.462371
ITEM: TIMESTEP
2800
ITEM: NUMBER OF ATOMS
20
ITEM: BOX BOUNDS pp pp pp
0.0000000000000000e+00 2.2430000000000000e+01
0.0000000000000000e+00 5.0000000000000000e+00
0.0000000000000000e+00 5.0000000000000000e+00
ITEM: ATOMS id type xs ys zs
2 1 0.607762 0.549838 0.944484
3 1 0.574282 0.408351 0.88034
20 1 0.40426 0.446322 0.386034
16 1 0.367086 0.530654 0.281183
18 1 0.390381 0.535795 0.311566
7 1 0.527188 0.436433 0.271705
6 1 0.531879 0.303049 0.508581
8 1 0.540187 0.314125 0.426454
9 1 0.585855 0.404578 0.452421
5 1 0.552889 0.443337 0.676974
17 1 0.372533 0.386399 0.46066
10 1 0.548621 0.516206 0.421426
11 1 0.494452 0.463955 0.437404
12 1 0.534592 0.611921 0.368803
13 1 0.512602 0.837416 0.287037
15 1 0.41291 0.714553 0.364666
14 1 0.464788 0.719419 0.288177
1 1 0.656729 0.628925 0.956086
4 1 0.551776 0.19924 0.750266
19 1 0.369228 0.549485 0.525736
ITEM: TIMESTEP
2900
ITEM: NUMBER OF ATOMS
20
ITEM: BOX BOUNDS pp pp pp
0.0000000000000000e+00 2.2430000000000000e+01
0.0000000000000000e+00 5.0000000000000000e+00
0.0000000000000000e+00 5.0000000000000000e+00
ITEM: ATOMS id type xs ys zs
2 1 0.61645 0.639649 0.950565
3 1 0.601781 0.480729 0.808844
20 1 0.399072 0.392856 0.392173
16 1 0.346028 0.562753 0.389995
18 1 0.371516 0.489214 0.34176
7 1 0.555419 0.395419 0.264193
6 1 0.555643 0.271303 0.412134
8 1 0.54735 0.346276 0.535715
9 1 0.584047 0.450928 0.452198
5 1 0.547163 0.424702 0.595875
17 1 0.362659 0.381067 0.517103
10 1 0.544607 0.576678 0.423709
11 1 0.502429 0.408184 0.489951
12 1 0.517266 0.595615 0.367429
13 1 0.493769 0.79763 0.217785
15 1 0.399018 0.654872 0.361819
14 1 0.442725 0.687024 0.29003
1 1 0.67411 0.631861 0.856773
4 1 0.566551 0.256096 0.777561
19 1 0.372395 0.557143 0.554386
ITEM: TIMESTEP
3000
ITEM: NUMBER OF ATOMS
20
ITEM: BOX BOUNDS pp pp pp
0.0000000000000000e+00 2.2430000000000000e+01
0.0000000000000000e+00 5.0000000000000000e+00
0.0000000000000000e+00 5.0000000000000000e+00
ITEM: ATOMS id type xs ys zs
2 1 0.638077 0.711677 0.914821
3 1 0.631507 0.551291 0.749444
20 1 0.386167 0.305369 0.46027
16 1 0.331432 0.592713 0.529015
18 1 0.352033 0.450786 0.356988
7 1 0.575396 0.434084 0.362732
6 1 0.580144 0.16667 0.436604
8 1 0.55723 0.368344 0.523054
9 1 0.590556 0.535159 0.403418
5 1 0.560971 0.364983 0.544026
17 1 0.348035 0.383839 0.578206
10 1 0.533115 0.57922 0.458212
11 1 0.504081 0.397467 0.472551
12 1 0.494915 0.580422 0.338178
13 1 0.474695 0.702213 0.177834
15 1 0.374618 0.646766 0.351333
14 1 0.419876 0.654052 0.299042
1 1 0.675948 0.625971 0.759182
4 1 0.58519 0.427793 0.746882
19 1 0.386013 0.521181 0.538205
ITEM: TIMESTEP
3100
ITEM: NUMBER OF ATOMS
20
ITEM: BOX BOUNDS pp pp pp
0.0000000000000000e+00 2.2430000000000000e+01
0.0000000000000000e+00 5.0000000000000000e+00
0.0000000000000000e+00 5.0000000000000000e+00
ITEM: ATOMS id type xs ys zs
14 1 0.397386 0.615098 0.30587
13 1 0.442863 0.630367 0.145745
20 1 0.375212 0.242715 0.51332
6 1 0.601598 0.17786 0.417574
16 1 0.329462 0.628731 0.616721
18 1 0.34109 0.432611 0.393846
17 1 0.334416 0.388647 0.656236
15 1 0.353106 0.619375 0.366148
19 1 0.39044 0.469968 0.479493
12 1 0.47569 0.563294 0.325428
8 1 0.562832 0.417676 0.564469
5 1 0.579688 0.402925 0.536136
10 1 0.529351 0.532207 0.518064
11 1 0.504053 0.360955 0.453225
7 1 0.610207 0.397073 0.401212
9 1 0.581556 0.558795 0.406819
4 1 0.605237 0.555842 0.657935
3 1 0.655289 0.601729 0.673024
1 1 0.674635 0.643649 0.700859
2 1 0.655889 0.760484 0.867874
ITEM: TIMESTEP
3200
ITEM: NUMBER OF ATOMS
20
ITEM: BOX BOUNDS pp pp pp
0.0000000000000000e+00 2.2430000000000000e+01
0.0000000000000000e+00 5.0000000000000000e+00
0.0000000000000000e+00 5.0000000000000000e+00
ITEM: ATOMS id type xs ys zs
14 1 0.377659 0.586525 0.309157
13 1 0.423919 0.546024 0.167068
20 1 0.366873 0.229074 0.564058
6 1 0.610653 0.188355 0.440024
16 1 0.335472 0.658274 0.66147
18 1 0.334942 0.417347 0.457152
17 1 0.321529 0.399473 0.687694
15 1 0.333955 0.580164 0.416459
19 1 0.388243 0.40076 0.413483
12 1 0.458883 0.511037 0.307188
8 1 0.583581 0.446845 0.607573
5 1 0.601862 0.392043 0.563399
10 1 0.537474 0.508225 0.531134
11 1 0.498821 0.376217 0.405716
7 1 0.629704 0.436333 0.46895
9 1 0.567361 0.616174 0.391936
4 1 0.616113 0.622498 0.522762
3 1 0.670134 0.658137 0.643691
1 1 0.671095 0.630394 0.62203
2 1 0.671726 0.7961 0.819057
ITEM: TIMESTEP
3300
ITEM: NUMBER OF ATOMS
20
ITEM: BOX BOUNDS pp pp pp
0.0000000000000000e+00 2.2430000000000000e+01
0.0000000000000000e+00 5.0000000000000000e+00
0.0000000000000000e+00 5.0000000000000000e+00
ITEM: ATOMS id type xs ys zs
14 1 0.358119 0.562896 0.312862
13 1 0.400114 0.470125 0.172934
20 1 0.360343 0.233203 0.597632
6 1 0.62353 0.243906 0.457028
16 1 0.336092 0.634848 0.678452
18 1 0.334861 0.414162 0.510443
17 1 0.312062 0.438067 0.720643
15 1 0.31895 0.549538 0.486641
19 1 0.37821 0.310686 0.376697
12 1 0.443833 0.461088 0.30744
8 1 0.601934 0.543607 0.567119
5 1 0.623599 0.451728 0.593859
10 1 0.547365 0.404814 0.537387
11 1 0.496595 0.422388 0.379105
7 1 0.647135 0.444922 0.553702
9 1 0.567061 0.652447 0.455991
4 1 0.63029 0.615987 0.39177
3 1 0.665581 0.69096 0.566194
1 1 0.667477 0.652353 0.590119
2 1 0.686849 0.802274 0.743982
ITEM: TIMESTEP
3400
ITEM: NUMBER OF ATOMS
20
ITEM: BOX BOUNDS pp pp pp
0.0000000000000000e+00 2.2430000000000000e+01
0.0000000000000000e+00 5.0000000000000000e+00
0.0000000000000000e+00 5.0000000000000000e+00
ITEM: ATOMS id type xs ys zs
14 1 0.338486 0.486121 0.334619
13 1 0.381556 0.386239 0.245558
20 1 0.354626 0.25121 0.611522
6 1 0.637149 0.318935 0.512013
16 1 0.336477 0.619079 0.695066
18 1 0.341928 0.404555 0.562581
17 1 0.30783 0.465073 0.720044
15 1 0.307876 0.51573 0.54743
19 1 0.355374 0.261012 0.3688
12 1 0.441103 0.405107 0.313692
8 1 0.621932 0.624315 0.548846
5 1 0.649483 0.538203 0.540757
10 1 0.540124 0.423985 0.433032
11 1 0.490411 0.446377 0.386425
7 1 0.667996 0.443803 0.634116
9 1 0.566458 0.625909 0.528639
4 1 0.634307 0.56444 0.322455
3 1 0.664123 0.692097 0.486487