ITEM: TIMESTEP
0
ITEM: NUMBER OF ATOMS
100
ITEM: BOX BOUNDS pp pp pp
0.0000000000000000e+00 1.0003000000000000e+02
0.0000000000000000e+00 5.0000000000000000e+00
0.0000000000000000e+00 5.0000000000000000e+00
ITEM: ATOMS id type xs ys zs
1 1 0.019994 0.5 0.5
2 1 0.0296911 0.5 0.5
3 1 0.0393882 0.5 0.5
4 1 0.0490853 0.5 0.5
5 1 0.0587824 0.5 0.5
6 1 0.0684795 0.5 0.5
7 1 0.0781765 0.5 0.5
8 1 0.0878736 0.5 0.5
9 1 0.0975707 0.5 0.5
10 1 0.107268 0.5 0.5
11 1 0.116965 0.5 0.5
12 1 0.126662 0.5 0.5
13 1 0.136359 0.5 0.5
14 1 0.146056 0.5 0.5
15 1 0.155753 0.5 0.5
16 1 0.16545 0.5 0.5
17 1 0.175147 0.5 0.5
18 1 0.184845 0.5 0.5
19 1 0.194542 0.5 0.5
20 1 0.204239 0.5 0.5
21 1 0.213936 0.5 0.5
22 1 0.223633 0.5 0.5
23 1 0.23333 0.5 0.5
24 1 0.243027 0.5 0.5
25 1 0.252724 0.5 0.5
26 1 0.262421 0.5 0.5
27 1 0.272118 0.5 0.5
28 1 0.281815 0.5 0.5
29 1 0.291513 0.5 0.5
30 1 0.30121 0.5 0.5
31 1 0.310907 0.5 0.5
32 1 0.320604 0.5 0.5
33 1 0.330301 0.5 0.5
34 1 0.339998 0.5 0.5
35 1 0.349695 0.5 0.5
36 1 0.359392 0.5 0.5
37 1 0.369089 0.5 0.5
38 1 0.378786 0.5 0.5
39 1 0.388483 0.5 0.5
40 1 0.398181 0.5 0.5
41 1 0.407878 0.5 0.5
42 1 0.417575 0.5 0.5
43 1 0.427272 0.5 0.5
44 1 0.436969 0.5 0.5
45 1 0.446666 0.5 0.5
46 1 0.456363 0.5 0.5
47 1 0.46606 0.5 0.5
48 1 0.475757 0.5 0.5
49 1 0.485454 0.5 0.5
50 1 0.495151 0.5 0.5
51 1 0.504849 0.5 0.5
52 1 0.514546 0.5 0.5
53 1 0.524243 0.5 0.5
54 1 0.53394 0.5 0.5
55 1 0.543637 0.5 0.5
56 1 0.553334 0.5 0.5
57 1 0.563031 0.5 0.5
58 1 0.572728 0.5 0.5
59 1 0.582425 0.5 0.5
60 1 0.592122 0.5 0.5
61 1 0.601819 0.5 0.5
62 1 0.611517 0.5 0.5
63 1 0.621214 0.5 0.5
64 1 0.630911 0.5 0.5
65 1 0.640608 0.5 0.5
66 1 0.650305 0.5 0.5
67 1 0.660002 0.5 0.5
68 1 0.669699 0.5 0.5
69 1 0.679396 0.5 0.5
70 1 0.689093 0.5 0.5
71 1 0.69879 0.5 0.5
72 1 0.708487 0.5 0.5
73 1 0.718185 0.5 0.5
74 1 0.727882 0.5 0.5
75 1 0.737579 0.5 0.5
76 1 0.747276 0.5 0.5
77 1 0.756973 0.5 0.5
78 1 0.76667 0.5 0.5
79 1 0.776367 0.5 0.5
80 1 0.786064 0.5 0.5
81 1 0.795761 0.5 0.5
82 1 0.805458 0.5 0.5
83 1 0.815155 0.5 0.5
84 1 0.824853 0.5 0.5
85 1 0.83455 0.5 0.5
86 1 0.844247 0.5 0.5
87 1 0.853944 0.5 0.5
88 1 0.863641 0.5 0.5
89 1 0.873338 0.5 0.5
90 1 0.883035 0.5 0.5
91 1 0.892732 0.5 0.5
92 1 0.902429 0.5 0.5
93 1 0.912126 0.5 0.5
94 1 0.921823 0.5 0.5
95 1 0.931521 0.5 0.5
96 1 0.941218 0.5 0.5
97 1 0.950915 0.5 0.5
98 1 0.960612 0.5 0.5
99 1 0.970309 0.5 0.5
100 1 0.980006 0.5 0.5
ITEM: TIMESTEP
100
ITEM: NUMBER OF ATOMS
100
ITEM: BOX BOUNDS pp pp pp
0.0000000000000000e+00 1.0003000000000000e+02
0.0000000000000000e+00 5.0000000000000000e+00
0.0000000000000000e+00 5.0000000000000000e+00
ITEM: ATOMS id type xs ys zs
1 1 0.0126889 0.445604 0.441732
2 1 0.0250805 0.464801 0.417069
3 1 0.0352582 0.493608 0.599426
4 1 0.04806 0.536139 0.643694
5 1 0.0580205 0.413039 0.619717
6 1 0.0687191 0.484661 0.5627
7 1 0.0790337 0.484639 0.454481
8 1 0.0888641 0.616769 0.51317
9 1 0.0987968 0.499349 0.673424
10 1 0.107391 0.566291 0.449192
11 1 0.117029 0.397784 0.554605
12 1 0.125416 0.529183 0.394067
13 1 0.137606 0.619904 0.483527
14 1 0.146493 0.477487 0.29365
15 1 0.156982 0.60865 0.360453
16 1 0.16541 0.544654 0.498466
17 1 0.176574 0.536806 0.505787
18 1 0.186068 0.390501 0.432163
19 1 0.19585 0.467811 0.512393
20 1 0.203727 0.641934 0.477544
21 1 0.212555 0.43237 0.525632
22 1 0.223975 0.458395 0.487944
23 1 0.235394 0.496061 0.504233
24 1 0.246079 0.553195 0.648784
25 1 0.253374 0.480052 0.42574
26 1 0.265063 0.6236 0.366676
27 1 0.272766 0.487952 0.580451
28 1 0.283567 0.526786 0.407458
29 1 0.291995 0.413639 0.584118
30 1 0.302434 0.565739 0.420082
31 1 0.313012 0.442917 0.525478
32 1 0.320873 0.661038 0.460445
33 1 0.326752 0.408034 0.5837
34 1 0.336371 0.578256 0.519724
35 1 0.34761 0.410865 0.492987
36 1 0.35732 0.611438 0.436785
37 1 0.366593 0.411554 0.506367
38 1 0.375935 0.570618 0.405472
39 1 0.387642 0.509828 0.474694
40 1 0.397442 0.386987 0.576729
41 1 0.407827 0.544534 0.517868
42 1 0.420512 0.494139 0.411445
43 1 0.427968 0.592006 0.629397
44 1 0.435487 0.390211 0.538518
45 1 0.443752 0.635403 0.499954
46 1 0.456392 0.508437 0.404847
47 1 0.46423 0.347941 0.581462
48 1 0.473105 0.531441 0.537785
49 1 0.484458 0.480999 0.45017
50 1 0.498131 0.554702 0.423432
51 1 0.505597 0.59577 0.64975
52 1 0.511423 0.445564 0.431509
53 1 0.523485 0.54307 0.501573
54 1 0.532935 0.434026 0.592214
55 1 0.541323 0.472431 0.389033
56 1 0.552029 0.533423 0.512585
57 1 0.561086 0.387311 0.559959
58 1 0.571937 0.563234 0.518624
59 1 0.579254 0.35211 0.451025
60 1 0.590617 0.32477 0.583253
61 1 0.598656 0.583566 0.547161
62 1 0.609983 0.516107 0.467589
63 1 0.620261 0.407414 0.53208
64 1 0.630261 0.543164 0.412152
65 1 0.641034 0.428794 0.470584
66 1 0.65233 0.557903 0.464474
67 1 0.65926 0.328745 0.562438
68 1 0.669316 0.519923 0.564543
69 1 0.677666 0.359021 0.384573
70 1 0.685325 0.502445 0.546045
71 1 0.697278 0.448785 0.559932
72 1 0.706885 0.610238 0.486088
73 1 0.71613 0.48235 0.536232
74 1 0.72757 0.486128 0.482117
75 1 0.738696 0.54595 0.513336
76 1 0.749346 0.566953 0.556265
77 1 0.760606 0.426867 0.565871
78 1 0.769031 0.584214 0.399193
79 1 0.776517 0.475037 0.658838
80 1 0.785309 0.590261 0.484417
81 1 0.795481 0.470995 0.367812
82 1 0.807158 0.442441 0.497748
83 1 0.815774 0.656138 0.492828
84 1 0.825046 0.455771 0.553509
85 1 0.837264 0.542989 0.478405
86 1 0.844072 0.338949 0.353634
87 1 0.854474 0.402414 0.552507
88 1 0.864364 0.603435 0.568702
89 1 0.87299 0.415983 0.464271
90 1 0.883562 0.574213 0.47565
91 1 0.895708 0.649683 0.5619
92 1 0.903798 0.417881 0.619979
93 1 0.911465 0.506511 0.402105
94 1 0.923348 0.402317 0.46481
95 1 0.934626 0.484021 0.448624
96 1 0.946499 0.385387 0.459138
97 1 0.952283 0.659911 0.556218
98 1 0.963352 0.547695 0.462302
99 1 0.976609 0.545833 0.487716
100 1 0.989295 0.553107 0.533049
ITEM: TIMESTEP
200
ITEM: NUMBER OF ATOMS
100
ITEM: BOX BOUNDS pp pp pp
0.0000000000000000e+00 1.0003000000000000e+02
0.0000000000000000e+00 5.0000000000000000e+00
0.0000000000000000e+00 5.0000000000000000e+00
ITEM: ATOMS id type xs ys zs
1 1 0.0102398 0.4075 0.390423
2 1 0.0220706 0.447936 0.467781
3 1 0.0320365 0.498593 0.60774
4 1 0.0431033 0.479054 0.716358
5 1 0.0555262 0.411132 0.714429
6 1 0.0689598 0.456143 0.598745
7 1 0.0810221 0.528144 0.484034
8 1 0.0901073 0.602335 0.552931
9 1 0.100023 0.595028 0.654366
10 1 0.108493 0.526815 0.548924
11 1 0.118115 0.425247 0.486595
12 1 0.126574 0.547392 0.416161
13 1 0.135346 0.589385 0.326784
14 1 0.145642 0.576451 0.230602
15 1 0.156097 0.648484 0.27548
16 1 0.164943 0.596911 0.450601
17 1 0.176791 0.510902 0.481365
18 1 0.187216 0.374349 0.433217
19 1 0.197233 0.45369 0.486342
20 1 0.205584 0.634634 0.49259
21 1 0.212551 0.465418 0.510053
22 1 0.224358 0.445093 0.504658
23 1 0.23715 0.489458 0.529011
24 1 0.250074 0.546122 0.627082
25 1 0.25517 0.575702 0.446247
26 1 0.26422 0.582514 0.39313
27 1 0.274323 0.568363 0.465274
28 1 0.284346 0.49112 0.467116
29 1 0.293334 0.455999 0.506269
30 1 0.303731 0.510546 0.471306
31 1 0.312316 0.47527 0.48951
32 1 0.321339 0.683512 0.469806
33 1 0.325169 0.446142 0.618974
34 1 0.335105 0.520951 0.5475
35 1 0.34465 0.499544 0.470221
36 1 0.3542 0.5423 0.433468
37 1 0.364633 0.479658 0.438199
38 1 0.375632 0.529315 0.410388
39 1 0.386678 0.489955 0.469385
40 1 0.39829 0.441127 0.547198
41 1 0.40939 0.466626 0.519469
42 1 0.418768 0.567072 0.45177
43 1 0.426568 0.588156 0.653992
44 1 0.437074 0.462783 0.583097
45 1 0.445103 0.531701 0.43973
46 1 0.453466 0.497387 0.507495
47 1 0.461893 0.377115 0.525541
48 1 0.474279 0.484348 0.518923
49 1 0.484151 0.533325 0.459351
50 1 0.495739 0.565724 0.466809
51 1 0.50513 0.619346 0.609752
52 1 0.509887 0.478793 0.46254
53 1 0.521548 0.493308 0.523866
54 1 0.530799 0.448657 0.536556
55 1 0.540568 0.456844 0.433329
56 1 0.551491 0.478314 0.497827
57 1 0.559779 0.41163 0.581002
58 1 0.571367 0.457075 0.511376
59 1 0.579268 0.320891 0.516035
60 1 0.587724 0.338716 0.5554
61 1 0.597327 0.482496 0.570253
62 1 0.607363 0.503972 0.499604
63 1 0.618644 0.419817 0.49445
64 1 0.630324 0.470535 0.410929
65 1 0.641109 0.47589 0.421435
66 1 0.652201 0.458085 0.467383
67 1 0.659696 0.346795 0.582991
68 1 0.669219 0.403009 0.560979
69 1 0.675308 0.347036 0.388975
70 1 0.683831 0.444393 0.549505
71 1 0.693545 0.499616 0.566865
72 1 0.703936 0.595094 0.523389
73 1 0.713928 0.502243 0.541099
74 1 0.727257 0.476855 0.479399
75 1 0.741154 0.577841 0.531023
76 1 0.752861 0.589222 0.597375
77 1 0.76301 0.451666 0.567719
78 1 0.770847 0.544513 0.453788
79 1 0.778516 0.555359 0.646476
80 1 0.786715 0.564289 0.463711
81 1 0.795748 0.495683 0.392473
82 1 0.806206 0.514058 0.423897
83 1 0.816117 0.581091 0.519258
84 1 0.828011 0.556516 0.520425
85 1 0.83666 0.442397 0.450591
86 1 0.846632 0.338881 0.409161
87 1 0.855368 0.407036 0.484702
88 1 0.862482 0.491794 0.576439
89 1 0.874979 0.509659 0.478976
90 1 0.88529 0.586868 0.51487
91 1 0.894364 0.61633 0.579047
92 1 0.904867 0.512651 0.59694
93 1 0.912265 0.424382 0.435434
94 1 0.925014 0.400463 0.409631
95 1 0.936955 0.412999 0.424993
96 1 0.948595 0.443172 0.459019
97 1 0.957052 0.623474 0.511146
98 1 0.968125 0.62155 0.489
99 1 0.979932 0.591655 0.483539
100 1 0.992166 0.59457 0.538993
ITEM: TIMESTEP
300
ITEM: NUMBER OF ATOMS
100
ITEM: BOX BOUNDS pp pp pp
0.0000000000000000e+00 1.0003000000000000e+02
0.0000000000000000e+00 5.0000000000000000e+00
0.0000000000000000e+00 5.0000000000000000e+00
ITEM: ATOMS id type xs ys zs
1 1 0.0123203 0.389644 0.370184
2 1 0.0201973 0.442404 0.55951
3 1 0.0327717 0.48076 0.6084
4 1 0.0442878 0.374095 0.698045
5 1 0.0537322 0.524916 0.6908
6 1 0.0642624 0.406553 0.642192
7 1 0.0750491 0.556345 0.614293
8 1 0.0883707 0.56786 0.572938
9 1 0.1003 0.670531 0.681483
10 1 0.109431 0.518962 0.599059
11 1 0.118549 0.385803 0.442317
12 1 0.128162 0.591752 0.445427
13 1 0.134022 0.587582 0.198813
14 1 0.14659 0.651045 0.155456
15 1 0.156936 0.642656 0.286312
16 1 0.170809 0.659256 0.325369
17 1 0.17348 0.419783 0.423798
18 1 0.185402 0.465353 0.505291
19 1 0.197662 0.450975 0.407573
20 1 0.206981 0.610387 0.523449
21 1 0.215147 0.477735 0.474072
22 1 0.22706 0.469275 0.56513
23 1 0.237809 0.476863 0.569434
24 1 0.246719 0.511986 0.631419
25 1 0.251848 0.653681 0.438488
26 1 0.263938 0.566711 0.333163
27 1 0.275909 0.680077 0.401421
28 1 0.281095 0.432283 0.50711
29 1 0.294879 0.399278 0.510978
30 1 0.30717 0.550148 0.455781
31 1 0.318181 0.440882 0.463319
32 1 0.321963 0.681414 0.533469
33 1 0.318497 0.499012 0.638447
34 1 0.331851 0.531631 0.596206
35 1 0.341712 0.515147 0.421353
36 1 0.354427 0.559804 0.393828
37 1 0.366312 0.519508 0.36838
38 1 0.376766 0.468456 0.432004
39 1 0.388244 0.412304 0.509432
40 1 0.399806 0.559639 0.474771
41 1 0.408847 0.419914 0.519792
42 1 0.416958 0.596387 0.514704
43 1 0.426075 0.588056 0.640904
44 1 0.436761 0.51231 0.595482
45 1 0.443711 0.480403 0.428504
46 1 0.452317 0.496118 0.582262
47 1 0.462476 0.40509 0.479838
48 1 0.476847 0.387774 0.481586
49 1 0.481532 0.620013 0.488889
50 1 0.494302 0.560921 0.525457
51 1 0.504724 0.643159 0.578323
52 1 0.507075 0.513497 0.434232
53 1 0.517544 0.419581 0.608134
54 1 0.52799 0.483936 0.47321
55 1 0.540127 0.46505 0.466665
56 1 0.553052 0.392482 0.429278
57 1 0.560194 0.427298 0.655866
58 1 0.568214 0.436017 0.478303
59 1 0.575835 0.226777 0.569716
60 1 0.587727 0.299352 0.52966
61 1 0.597926 0.445008 0.617236
62 1 0.608865 0.494381 0.546841
63 1 0.619355 0.468554 0.410516
64 1 0.630584 0.379772 0.438887
65 1 0.638891 0.565167 0.366604
66 1 0.649366 0.379439 0.452492
67 1 0.658245 0.304146 0.633982
68 1 0.670817 0.351176 0.579333
69 1 0.676002 0.321816 0.356389
70 1 0.682738 0.364303 0.558778
71 1 0.690126 0.580458 0.562403
72 1 0.705089 0.525871 0.570118
73 1 0.71716 0.545804 0.488662
74 1 0.728386 0.571701 0.5739
75 1 0.740151 0.523431 0.53668
76 1 0.750241 0.576297 0.589202
77 1 0.762484 0.482424 0.5673
78 1 0.773363 0.547933 0.518704
79 1 0.779559 0.606604 0.649807
80 1 0.784342 0.552655 0.438189
81 1 0.796705 0.481794 0.4078
82 1 0.809589 0.597506 0.36062
83 1 0.818762 0.514298 0.525746
84 1 0.829091 0.621904 0.48025
85 1 0.831821 0.382483 0.445114
86 1 0.845155 0.283967 0.402996
87 1 0.858209 0.409368 0.429683
88 1 0.867103 0.435012 0.627057
89 1 0.871426 0.619772 0.476442
90 1 0.884488 0.562539 0.537429
91 1 0.89719 0.61469 0.622218
92 1 0.909005 0.538101 0.548461
93 1 0.915895 0.378373 0.488979
94 1 0.926486 0.455502 0.362381
95 1 0.938444 0.322117 0.425746
96 1 0.949126 0.485452 0.441639
97 1 0.959551 0.589796 0.466908
98 1 0.970601 0.697148 0.535896
99 1 0.982674 0.619953 0.466508
100 1 0.994034 0.626658 0.542388
ITEM: TIMESTEP
400
ITEM: NUMBER OF ATOMS
100
ITEM: BOX BOUNDS pp pp pp
0.0000000000000000e+00 1.0003000000000000e+02
0.0000000000000000e+00 5.0000000000000000e+00
0.0000000000000000e+00 5.0000000000000000e+00
ITEM: ATOMS id type xs ys zs
1 1 0.016789 0.391668 0.415371
2 1 0.0223696 0.437691 0.606133
3 1 0.0324772 0.389334 0.636637
4 1 0.0446536 0.357448 0.619504
5 1 0.0516721 0.568796 0.659106
6 1 0.0622698 0.484099 0.689735
7 1 0.0735868 0.514633 0.709842
8 1 0.0853091 0.593614 0.692968
9 1 0.0974924 0.580354 0.580235
10 1 0.108883 0.523624 0.62054
11 1 0.11904 0.535145 0.491103
12 1 0.127849 0.509027 0.332584
13 1 0.136129 0.6249 0.186851
14 1 0.147856 0.680401 0.181575
15 1 0.158097 0.660354 0.226331
16 1 0.169397 0.604795 0.252909
17 1 0.175646 0.462115 0.376366
18 1 0.184188 0.508382 0.477219
19 1 0.195184 0.501862 0.433453
20 1 0.205248 0.553823 0.512349
21 1 0.21559 0.480188 0.414546
22 1 0.225586 0.478397 0.623906
23 1 0.239119 0.471805 0.575075
24 1 0.250582 0.527249 0.642465
25 1 0.252822 0.628559 0.422482
26 1 0.264146 0.668227 0.359809
27 1 0.273983 0.560129 0.385362
28 1 0.285464 0.51358 0.4688
29 1 0.294858 0.482148 0.477506
30 1 0.306405 0.461314 0.485966
31 1 0.319618 0.4884 0.472984
32 1 0.323331 0.655996 0.52406
33 1 0.317563 0.515323 0.664738
34 1 0.327959 0.527971 0.553683
35 1 0.338643 0.551399 0.465959
36 1 0.351744 0.554588 0.365587
37 1 0.366452 0.528569 0.344011
38 1 0.378628 0.439291 0.437163
39 1 0.390934 0.432536 0.495724
40 1 0.399305 0.573154 0.446148
41 1 0.407574 0.393624 0.490271
42 1 0.413186 0.619749 0.602581
43 1 0.424485 0.578989 0.634452
44 1 0.437479 0.597657 0.588351
45 1 0.443012 0.381941 0.460594
46 1 0.455805 0.478252 0.578476
47 1 0.465377 0.432665 0.475989
48 1 0.474811 0.416504 0.456486
49 1 0.480279 0.594693 0.518517
50 1 0.493067 0.595503 0.569069
51 1 0.502492 0.666952 0.585408
52 1 0.506978 0.471198 0.429667
53 1 0.514935 0.431324 0.57258
54 1 0.527836 0.472102 0.478534
55 1 0.539017 0.437709 0.462333
56 1 0.550547 0.381042 0.465228
57 1 0.559265 0.419788 0.64036
58 1 0.56631 0.369868 0.47706
59 1 0.575163 0.225126 0.586949
60 1 0.587109 0.286044 0.566421
61 1 0.598044 0.383858 0.595768
62 1 0.609515 0.467401 0.552257
63 1 0.620841 0.486297 0.400478
64 1 0.629686 0.351714 0.442525
65 1 0.640817 0.499493 0.373792
66 1 0.647277 0.369893 0.511936
67 1 0.656337 0.364706 0.549189
68 1 0.66744 0.232119 0.551412
69 1 0.677173 0.333595 0.402284
70 1 0.683998 0.387043 0.554269
71 1 0.693522 0.509492 0.557785
72 1 0.705096 0.517058 0.554023
73 1 0.715228 0.588541 0.531923
74 1 0.726565 0.612407 0.601457
75 1 0.737502 0.500231 0.556275
76 1 0.748641 0.547988 0.594724
77 1 0.761569 0.558681 0.515938
78 1 0.773639 0.486448 0.5837
79 1 0.783427 0.649642 0.619696
80 1 0.78763 0.55886 0.476921
81 1 0.797738 0.559902 0.397855
82 1 0.809324 0.583597 0.398445
83 1 0.819102 0.481941 0.464954
84 1 0.830406 0.584411 0.428641
85 1 0.835088 0.351221 0.429777
86 1 0.845226 0.402565 0.445948
87 1 0.855468 0.333233 0.467462
88 1 0.86647 0.435514 0.534838
89 1 0.87435 0.59011 0.542621
90 1 0.885285 0.618321 0.566752
91 1 0.896811 0.564264 0.579606
92 1 0.90996 0.55058 0.514426
93 1 0.920079 0.398404 0.522971
94 1 0.929258 0.414838 0.390319
95 1 0.940084 0.377077 0.402691
96 1 0.950287 0.513477 0.433565
97 1 0.961122 0.541156 0.438009
98 1 0.971269 0.695417 0.519923
99 1 0.983348 0.673464 0.501049
100 1 0.993782 0.653422 0.52769
ITEM: TIMESTEP
500
ITEM: NUMBER OF ATOMS
100
ITEM: BOX BOUNDS pp pp pp
0.0000000000000000e+00 1.0003000000000000e+02
0.0000000000000000e+00 5.0000000000000000e+00
0.0000000000000000e+00 5.0000000000000000e+00
ITEM: ATOMS id type xs ys zs
1 1 0.020319 0.385702 0.426609
2 1 0.0237351 0.442845 0.675046
3 1 0.0340773 0.303585 0.666359
4 1 0.0454494 0.358328 0.555237
5 1 0.0500077 0.578776 0.622194
6 1 0.062133 0.589122 0.738255
7 1 0.074031 0.479062 0.790474
8 1 0.0856491 0.583662 0.744063
9 1 0.0928515 0.492429 0.57994
10 1 0.105978 0.564416 0.585484
11 1 0.11902 0.599329 0.479476
12 1 0.126245 0.525758 0.3033
13 1 0.135457 0.61641 0.18423
14 1 0.147034 0.719976 0.238559
15 1 0.159055 0.711837 0.130584
16 1 0.168717 0.540849 0.15403
17 1 0.176049 0.45332 0.316578
18 1 0.18234 0.572563 0.515857
19 1 0.195687 0.540319 0.429648
20 1 0.206948 0.493875 0.50732
21 1 0.218617 0.495731 0.472296
22 1 0.227972 0.478868 0.535438
23 1 0.237102 0.510567 0.650455
24 1 0.249768 0.513193 0.611187
25 1 0.254538 0.624573 0.424
26 1 0.265756 0.672617 0.387193
27 1 0.271717 0.491992 0.381212
28 1 0.284794 0.621522 0.409385
29 1 0.298503 0.56381 0.444406
30 1 0.306881 0.357235 0.524233
31 1 0.318582 0.498963 0.460966
32 1 0.324466 0.660303 0.548364
33 1 0.319929 0.550793 0.659341
34 1 0.328939 0.533229 0.471432
35 1 0.341135 0.568433 0.468863
36 1 0.352573 0.523161 0.410058
37 1 0.362926 0.472813 0.443675
38 1 0.374888 0.492544 0.379529
39 1 0.387698 0.474001 0.443596
40 1 0.397627 0.576853 0.416265
41 1 0.40725 0.425221 0.497749
42 1 0.412515 0.582596 0.651251
43 1 0.423482 0.590388 0.613334
44 1 0.435104 0.573234 0.556639
45 1 0.442655 0.413509 0.557966
46 1 0.454413 0.43544 0.585685
47 1 0.46529 0.454573 0.44837
48 1 0.477256 0.403143 0.40256
49 1 0.478874 0.594797 0.556399
50 1 0.492106 0.634444 0.629086
51 1 0.502802 0.661216 0.569022
52 1 0.50719 0.462499 0.416166
53 1 0.514178 0.473272 0.523999
54 1 0.527183 0.430956 0.546988
55 1 0.536905 0.393584 0.421821
56 1 0.547841 0.389261 0.525539
57 1 0.557198 0.41017 0.618486
58 1 0.566099 0.297052 0.488353
59 1 0.576203 0.24754 0.582439
60 1 0.587989 0.312358 0.629529
61 1 0.598388 0.296719 0.518979
62 1 0.609104 0.396622 0.501006
63 1 0.620811 0.497308 0.478888
64 1 0.628452 0.370296 0.435038
65 1 0.638336 0.446018 0.36568
66 1 0.645625 0.344643 0.560182
67 1 0.65685 0.380708 0.509849
68 1 0.665858 0.178086 0.498106
69 1 0.674249 0.295883 0.429623
70 1 0.683503 0.382533 0.58495
71 1 0.69572 0.485081 0.553267
72 1 0.707454 0.478424 0.528774
73 1 0.714189 0.676667 0.614849
74 1 0.72666 0.626727 0.575194
75 1 0.737848 0.495519 0.60303
76 1 0.74938 0.535399 0.555125
77 1 0.760879 0.556121 0.560094
78 1 0.771178 0.533158 0.609223
79 1 0.780808 0.687922 0.616853
80 1 0.790935 0.493443 0.530593
81 1 0.799182 0.645598 0.330384
82 1 0.810906 0.579267 0.419769
83 1 0.82032 0.450588 0.420366
84 1 0.831637 0.544484 0.375927
85 1 0.837302 0.333414 0.421997
86 1 0.846431 0.480187 0.485157
87 1 0.854535 0.307846 0.509096
88 1 0.866077 0.454489 0.447459
89 1 0.876897 0.516298 0.60633
90 1 0.889174 0.668951 0.600969
91 1 0.896654 0.511898 0.482228
92 1 0.908697 0.506728 0.515651
93 1 0.921054 0.474822 0.55989
94 1 0.930574 0.403233 0.41436
95 1 0.94235 0.395922 0.383548
96 1 0.952744 0.572766 0.433002
97 1 0.963127 0.496072 0.422638
98 1 0.972876 0.650553 0.461785
99 1 0.981923 0.761047 0.577217
100 1 0.993586 0.66994 0.496406
ITEM: TIMESTEP
600
ITEM: NUMBER OF ATOMS
100
ITEM: BOX BOUNDS pp pp pp
0.0000000000000000e+00 1.0003000000000000e+02
0.0000000000000000e+00 5.0000000000000000e+00
0.0000000000000000e+00 5.0000000000000000e+00
ITEM: ATOMS id type xs ys zs
1 1 0.0242814 0.394614 0.475146
2 1 0.0273153 0.409253 0.712077
3 1 0.0371966 0.253531 0.660427
4 1 0.0446891 0.415773 0.551352
5 1 0.0532867 0.525061 0.625813
6 1 0.0622282 0.627613 0.750172
7 1 0.0724814 0.548178 0.822568
8 1 0.084994 0.50148 0.752459
9 1 0.0965692 0.48514 0.660378
10 1 0.0999774 0.599138 0.420934
11 1 0.113076 0.562696 0.470975
12 1 0.12394 0.63559 0.340079
13 1 0.135859 0.620182 0.244261
14 1 0.146951 0.711859 0.202818
15 1 0.157742 0.678198 0.102042
16 1 0.167467 0.55287 0.121228
17 1 0.175796 0.493018 0.25474
18 1 0.183336 0.584901 0.44866
19 1 0.194892 0.576294 0.483713
20 1 0.203746 0.444215 0.491433
21 1 0.218908 0.518248 0.470069
22 1 0.232104 0.483608 0.503891
23 1 0.238609 0.544487 0.714574
24 1 0.247875 0.50657 0.568529
25 1 0.255097 0.627213 0.440423
26 1 0.268496 0.666705 0.43588
27 1 0.278258 0.506662 0.385569
28 1 0.288033 0.59321 0.353007
29 1 0.296198 0.546868 0.438829
30 1 0.304904 0.466561 0.477517
31 1 0.317462 0.530989 0.485003
32 1 0.325724 0.674883 0.467082
33 1 0.324173 0.487941 0.638116
34 1 0.327651 0.562811 0.478063
35 1 0.340556 0.576024 0.468678
36 1 0.353139 0.485614 0.473949
37 1 0.36327 0.422271 0.527
38 1 0.37018 0.532683 0.361775
39 1 0.383427 0.536143 0.371642
40 1 0.395321 0.544273 0.401403
41 1 0.40637 0.492256 0.515625
42 1 0.410935 0.514153 0.719823
43 1 0.420184 0.633813 0.55735
44 1 0.434365 0.54178 0.524851
45 1 0.444207 0.431195 0.617967
46 1 0.454223 0.408001 0.588491
47 1 0.464707 0.45629 0.448372
48 1 0.477644 0.442585 0.392263
49 1 0.480332 0.573027 0.582899
50 1 0.490864 0.648025 0.638348
51 1 0.501136 0.606481 0.540831
52 1 0.504199 0.486777 0.389714
53 1 0.514521 0.525723 0.552539
54 1 0.526796 0.398052 0.554971
55 1 0.533746 0.359164 0.414098
56 1 0.54549 0.383346 0.560831
57 1 0.557225 0.410136 0.609181
58 1 0.566379 0.20599 0.526093
59 1 0.577321 0.290753 0.563157
60 1 0.59011 0.318875 0.660309
61 1 0.597547 0.238839 0.484569
62 1 0.608962 0.342401 0.473391
63 1 0.617642 0.502207 0.541621
64 1 0.627059 0.335582 0.433242
65 1 0.638142 0.376741 0.37402
66 1 0.645355 0.376228 0.581802
67 1 0.656672 0.343447 0.457436
68 1 0.663717 0.152439 0.459948
69 1 0.67247 0.279507 0.484471
70 1 0.684842 0.386911 0.563443
71 1 0.697745 0.433855 0.553035
72 1 0.707637 0.499941 0.544877
73 1 0.716097 0.670444 0.6269
74 1 0.726088 0.620856 0.615497
75 1 0.736383 0.539715 0.630725
76 1 0.747714 0.524158 0.469399
77 1 0.75861 0.53743 0.649175
78 1 0.770796 0.612613 0.634502
79 1 0.782275 0.584642 0.578499
80 1 0.792668 0.663445 0.513834
81 1 0.800583 0.606359 0.389862
82 1 0.811429 0.572057 0.420164
83 1 0.820815 0.446562 0.367032
84 1 0.833083 0.487766 0.337209
85 1 0.839645 0.323878 0.387482
86 1 0.847292 0.512366 0.54386
87 1 0.859 0.418334 0.50966
88 1 0.869282 0.457207 0.535157
89 1 0.878373 0.470091 0.516957
90 1 0.887854 0.566691 0.610812
91 1 0.897279 0.501125 0.4526
92 1 0.908101 0.476603 0.501118
93 1 0.920698 0.528107 0.531974
94 1 0.933086 0.404796 0.488667
95 1 0.942704 0.464466 0.378969
96 1 0.95448 0.572015 0.417241
97 1 0.964928 0.497909 0.406015
98 1 0.975544 0.625721 0.462538
99 1 0.980642 0.788781 0.593627
100 1 0.990793 0.697972 0.468684
ITEM: TIMESTEP
700
ITEM: NUMBER OF ATOMS
100
ITEM: BOX BOUNDS pp pp pp
0.0000000000000000e+00 1.0003000000000000e+02
0.0000000000000000e+00 5.0000000000000000e+00
0.0000000000000000e+00 5.0000000000000000e+00
ITEM: ATOMS id type xs ys zs
1 1 0.02843 0.399381 0.533731
2 1 0.0320133 0.36034 0.731606
3 1 0.0407155 0.250672 0.649335
4 1 0.0439791 0.466195 0.573509
5 1 0.0566578 0.449947 0.632208
6 1 0.0640653 0.650218 0.765744
7 1 0.0755509 0.601682 0.79861
8 1 0.0853166 0.44267 0.725541
9 1 0.0948883 0.565457 0.659878
10 1 0.0978408 0.536307 0.444585
11 1 0.108246 0.608826 0.357346
12 1 0.120668 0.678207 0.39116
13 1 0.134097 0.672757 0.344751
14 1 0.142493 0.671154 0.164517
15 1 0.153726 0.599369 0.083409
16 1 0.166348 0.599999 0.125623
17 1 0.17778 0.552351 0.187725
18 1 0.185996 0.586412 0.388162
19 1 0.196336 0.563588 0.493514
20 1 0.206762 0.497896 0.464444
21 1 0.219422 0.44484 0.51803
22 1 0.227884 0.553849 0.523386
23 1 0.237381 0.549373 0.696509
24 1 0.247477 0.52119 0.522504
25 1 0.257632 0.617522 0.469294
26 1 0.269667 0.630657 0.467922
27 1 0.280601 0.528689 0.377503
28 1 0.2877 0.618545 0.247164
29 1 0.294844 0.530014 0.478429
30 1 0.306822 0.533469 0.419422
31 1 0.316726 0.605007 0.602958
32 1 0.327886 0.56103 0.421786
33 1 0.327563 0.480055 0.589902
34 1 0.330095 0.625611 0.41534
35 1 0.340565 0.558363 0.478433
36 1 0.352292 0.469107 0.53275
37 1 0.364226 0.409968 0.562931
38 1 0.368281 0.548882 0.388782
39 1 0.379753 0.596464 0.315589
40 1 0.390548 0.500615 0.405878
41 1 0.402639 0.579351 0.516202
42 1 0.412184 0.514134 0.671757
43 1 0.42106 0.522488 0.593221
44 1 0.430734 0.518578 0.537972
45 1 0.44277 0.522718 0.641986
46 1 0.453601 0.382391 0.557436
47 1 0.465157 0.451919 0.467725
48 1 0.474947 0.49051 0.397396
49 1 0.481842 0.534412 0.60533
50 1 0.488257 0.73099 0.67821
51 1 0.499182 0.530954 0.55187
52 1 0.506061 0.489509 0.355879
53 1 0.515116 0.525903 0.5096
54 1 0.524101 0.391227 0.572179
55 1 0.532968 0.33443 0.463505
56 1 0.545286 0.379377 0.570515
57 1 0.55524 0.299362 0.539279
58 1 0.568 0.250969 0.607758
59 1 0.577321 0.306769 0.570472
60 1 0.589064 0.303247 0.624069
61 1 0.597236 0.2252 0.490415
62 1 0.608575 0.278544 0.422975
63 1 0.61439 0.392381 0.586245
64 1 0.626338 0.395164 0.450586
65 1 0.636516 0.315585 0.431756
66 1 0.645393 0.377018 0.531032
67 1 0.655963 0.293625 0.438357
68 1 0.664491 0.191682 0.42997
69 1 0.673307 0.275184 0.573429
70 1 0.684955 0.352304 0.497505
71 1 0.696714 0.366 0.552732
72 1 0.704374 0.525851 0.572079
73 1 0.716328 0.671533 0.606247
74 1 0.727833 0.578928 0.704297
75 1 0.738158 0.612399 0.585361
76 1 0.748306 0.508749 0.537702
77 1 0.756822 0.55914 0.633802
78 1 0.768407 0.617614 0.642368
79 1 0.780997 0.597054 0.575073
80 1 0.791441 0.70725 0.515614
81 1 0.800699 0.62489 0.412617
82 1 0.814212 0.573211 0.449834
83 1 0.822216 0.422683 0.288808
84 1 0.834966 0.447456 0.299572
85 1 0.844277 0.345106 0.401736
86 1 0.845548 0.503303 0.548039
87 1 0.859112 0.496462 0.517082
88 1 0.872231 0.463796 0.595017
89 1 0.882602 0.412687 0.437797
90 1 0.890253 0.46997 0.623754
91 1 0.899656 0.515499 0.446465
92 1 0.910289 0.453101 0.491702
93 1 0.921845 0.504394 0.459574
94 1 0.933198 0.495108 0.539033
95 1 0.941898 0.524407 0.431842
96 1 0.954638 0.546545 0.392099
97 1 0.966911 0.585443 0.382281
98 1 0.97987 0.545556 0.505981
99 1 0.977848 0.801867 0.564128
100 1 0.986382 0.731392 0.452827
ITEM: TIMESTEP
800
ITEM: NUMBER OF ATOMS
100
ITEM: BOX BOUNDS pp pp pp
0.0000000000000000e+00 1.0003000000000000e+02
0.0000000000000000e+00 5.0000000000000000e+00
0.0000000000000000e+00 5.0000000000000000e+00
ITEM: ATOMS id type xs ys zs
1 1 0.0319472 0.412283 0.56653
2 1 0.0367003 0.316625 0.772682
3 1 0.0453496 0.262757 0.633231
4 1 0.0471408 0.491229 0.628029
5 1 0.0580922 0.466 0.675278
6 1 0.0677941 0.559067 0.740961
7 1 0.0775368 0.638018 0.725665
8 1 0.0844847 0.424185 0.711332
9 1 0.0926994 0.622334 0.630055
10 1 0.100891 0.540809 0.468485
11 1 0.106255 0.668064 0.28939
12 1 0.116777 0.65034 0.406649
13 1 0.129036 0.724776 0.368172
14 1 0.137169 0.614439 0.202443
15 1 0.150371 0.585786 0.116918
16 1 0.164555 0.603481 0.118947
17 1 0.177066 0.618557 0.162136
18 1 0.188447 0.602774 0.2968
19 1 0.197269 0.487027 0.481749
20 1 0.210401 0.576328 0.454663
21 1 0.218194 0.425509 0.55479
22 1 0.224738 0.585408 0.557058
23 1 0.236928 0.539456 0.625805
24 1 0.247606 0.596671 0.484345
25 1 0.259165 0.570738 0.529353
26 1 0.269772 0.57236 0.495699
27 1 0.2815 0.567656 0.401559
28 1 0.290103 0.604933 0.191583
29 1 0.296902 0.56086 0.429632
30 1 0.307533 0.616673 0.481467
31 1 0.31783 0.597598 0.490137
32 1 0.324545 0.551538 0.36517
33 1 0.331299 0.487058 0.596337
34 1 0.333175 0.625434 0.434466
35 1 0.341836 0.520812 0.485472
36 1 0.350893 0.456318 0.612502
37 1 0.36307 0.423521 0.566668
38 1 0.369084 0.565989 0.413242
39 1 0.378701 0.613571 0.306326
40 1 0.386838 0.523336 0.43352
41 1 0.395526 0.614298 0.528681
42 1 0.408043 0.52761 0.587807
43 1 0.420441 0.420382 0.626651
44 1 0.432063 0.47638 0.548405
45 1 0.444314 0.593525 0.596045
46 1 0.451733 0.408228 0.549992
47 1 0.463503 0.44878 0.503443
48 1 0.472826 0.531802 0.43473
49 1 0.482619 0.504937 0.604671
50 1 0.490022 0.675617 0.657978
51 1 0.49618 0.551391 0.506064
52 1 0.50338 0.52193 0.420341
53 1 0.515167 0.520547 0.476055
54 1 0.522187 0.387299 0.613866
55 1 0.534472 0.312125 0.494189
56 1 0.546864 0.33536 0.564058
57 1 0.554621 0.208684 0.511694
58 1 0.564027 0.309232 0.672
59 1 0.575358 0.326775 0.547842
60 1 0.589237 0.289264 0.624955
61 1 0.596761 0.18949 0.468598
62 1 0.60849 0.230123 0.41816
63 1 0.614172 0.306658 0.56369
64 1 0.624517 0.418951 0.494318
65 1 0.634057 0.273028 0.492739
66 1 0.645102 0.405082 0.477369
67 1 0.655284 0.198705 0.422181
68 1 0.667473 0.29161 0.406624
69 1 0.676227 0.251768 0.632509
70 1 0.683948 0.29601 0.466207
71 1 0.696017 0.351356 0.549991
72 1 0.703613 0.549701 0.595448
73 1 0.715388 0.579644 0.634657
74 1 0.726718 0.602894 0.701227
75 1 0.737461 0.633306 0.596019
76 1 0.74774 0.517923 0.564343
77 1 0.757834 0.604216 0.648109
78 1 0.771318 0.533801 0.603306
79 1 0.77943 0.767743 0.589168
80 1 0.790071 0.600055 0.475454
81 1 0.803305 0.668412 0.518917
82 1 0.813039 0.530664 0.371286
83 1 0.823757 0.472225 0.308474
84 1 0.834507 0.398418 0.270703
85 1 0.846973 0.365957 0.397011
86 1 0.85166 0.502266 0.534665
87 1 0.861196 0.557878 0.606287
88 1 0.870013 0.479448 0.498365
89 1 0.882777 0.378278 0.475225
90 1 0.893313 0.383976 0.588561
91 1 0.900508 0.504899 0.46255
92 1 0.912222 0.432662 0.475228
93 1 0.924161 0.486606 0.408134
94 1 0.932355 0.585376 0.582234
95 1 0.945277 0.591515 0.477218
96 1 0.957982 0.53782 0.371922
97 1 0.967287 0.589342 0.417505
98 1 0.9774 0.58606 0.491771
99 1 0.974002 0.76947 0.563338
100 1 0.98437 0.742181 0.405774
ITEM: TIMESTEP
900
ITEM: NUMBER OF ATOMS
100
ITEM: BOX BOUNDS pp pp pp
0.0000000000000000e+00 1.0003000000000000e+02
0.0000000000000000e+00 5.0000000000000000e+00
0.0000000000000000e+00 5.0000000000000000e+00
ITEM: ATOMS id type xs ys zs
1 1 0.0353755 0.424327 0.620466
2 1 0.0405642 0.269517 0.796458
3 1 0.0500116 0.280564 0.61079