ITEM: TIMESTEP
0
ITEM: NUMBER OF ATOMS
50
ITEM: BOX BOUNDS pp pp pp
0.0000000000000000e+00 5.1530000000000001e+01
0.0000000000000000e+00 5.0000000000000000e+00
0.0000000000000000e+00 5.0000000000000000e+00
ITEM: ATOMS id type xs ys zs
1 1 0.0388123 0.5 0.5
2 1 0.0576363 0.5 0.5
3 1 0.0764603 0.5 0.5
4 1 0.0952843 0.5 0.5
5 1 0.114108 0.5 0.5
6 1 0.132932 0.5 0.5
7 1 0.151756 0.5 0.5
8 1 0.17058 0.5 0.5
9 1 0.189404 0.5 0.5
10 1 0.208228 0.5 0.5
11 1 0.227052 0.5 0.5
12 1 0.245876 0.5 0.5
13 1 0.2647 0.5 0.5
14 1 0.283524 0.5 0.5
15 1 0.302348 0.5 0.5
16 1 0.321172 0.5 0.5
17 1 0.339996 0.5 0.5
18 1 0.35882 0.5 0.5
19 1 0.377644 0.5 0.5
20 1 0.396468 0.5 0.5
21 1 0.415292 0.5 0.5
22 1 0.434116 0.5 0.5
23 1 0.45294 0.5 0.5
24 1 0.471764 0.5 0.5
25 1 0.490588 0.5 0.5
26 1 0.509412 0.5 0.5
27 1 0.528236 0.5 0.5
28 1 0.54706 0.5 0.5
29 1 0.565884 0.5 0.5
30 1 0.584708 0.5 0.5
31 1 0.603532 0.5 0.5
32 1 0.622356 0.5 0.5
33 1 0.64118 0.5 0.5
34 1 0.660004 0.5 0.5
35 1 0.678828 0.5 0.5
36 1 0.697652 0.5 0.5
37 1 0.716476 0.5 0.5
38 1 0.7353 0.5 0.5
39 1 0.754124 0.5 0.5
40 1 0.772948 0.5 0.5
41 1 0.791772 0.5 0.5
42 1 0.810596 0.5 0.5
43 1 0.82942 0.5 0.5
44 1 0.848244 0.5 0.5
45 1 0.867068 0.5 0.5
46 1 0.885892 0.5 0.5
47 1 0.904716 0.5 0.5
48 1 0.92354 0.5 0.5
49 1 0.942364 0.5 0.5
50 1 0.961188 0.5 0.5
ITEM: TIMESTEP
100
ITEM: NUMBER OF ATOMS
50
ITEM: BOX BOUNDS pp pp pp
0.0000000000000000e+00 5.1530000000000001e+01
0.0000000000000000e+00 5.0000000000000000e+00
0.0000000000000000e+00 5.0000000000000000e+00
ITEM: ATOMS id type xs ys zs
1 1 0.0261223 0.465772 0.469824
2 1 0.049623 0.476277 0.449222
3 1 0.0716326 0.493033 0.56289
4 1 0.0942248 0.521289 0.582106
5 1 0.113567 0.441494 0.56954
6 1 0.133337 0.489926 0.537818
7 1 0.152658 0.484941 0.470602
8 1 0.171554 0.566916 0.507581
9 1 0.190866 0.489569 0.612737
10 1 0.208994 0.549171 0.454818
11 1 0.227392 0.415486 0.552839
12 1 0.244665 0.520378 0.424934
13 1 0.266021 0.572415 0.505465
14 1 0.284474 0.471547 0.376697
15 1 0.304069 0.56579 0.420525
16 1 0.321621 0.518597 0.508722
17 1 0.341436 0.514966 0.50418
18 1 0.360409 0.43663 0.463496
19 1 0.379012 0.472492 0.510216
20 1 0.396162 0.58559 0.487517
21 1 0.414551 0.454453 0.517684
22 1 0.434764 0.471536 0.494053
23 1 0.455186 0.49209 0.495641
24 1 0.474985 0.534823 0.611858
25 1 0.491405 0.47193 0.443716
26 1 0.51222 0.579635 0.414754
27 1 0.529527 0.480641 0.564902
28 1 0.548952 0.519179 0.433504
29 1 0.566768 0.436498 0.564129
30 1 0.586268 0.548194 0.443898
31 1 0.605965 0.432492 0.530185
32 1 0.622803 0.634239 0.460329
33 1 0.637817 0.400328 0.567924
34 1 0.656553 0.571249 0.507126
35 1 0.676705 0.420651 0.499807
36 1 0.695602 0.581806 0.459706
37 1 0.714069 0.431414 0.5121
38 1 0.732722 0.541724 0.445211
39 1 0.753361 0.506 0.484534
40 1 0.772357 0.41898 0.551394
41 1 0.792068 0.534986 0.518136
42 1 0.814173 0.475535 0.417331
43 1 0.830228 0.585344 0.613243
44 1 0.846298 0.392847 0.510969
45 1 0.864073 0.592959 0.50317
46 1 0.886331 0.509289 0.434085
47 1 0.90371 0.386295 0.562035
48 1 0.923039 0.52729 0.520009
49 1 0.946959 0.491656 0.471947
50 1 0.972698 0.523655 0.47489
ITEM: TIMESTEP
200
ITEM: NUMBER OF ATOMS
50
ITEM: BOX BOUNDS pp pp pp
0.0000000000000000e+00 5.1530000000000001e+01
0.0000000000000000e+00 5.0000000000000000e+00
0.0000000000000000e+00 5.0000000000000000e+00
ITEM: ATOMS id type xs ys zs
1 1 0.019659 0.444662 0.44761
2 1 0.0435238 0.463017 0.445972
3 1 0.0638974 0.493826 0.580868
4 1 0.0877116 0.525259 0.634887
5 1 0.108813 0.387339 0.627925
6 1 0.133714 0.495324 0.569443
7 1 0.157133 0.47978 0.432673
8 1 0.176265 0.593559 0.523335
9 1 0.195156 0.519818 0.627476
10 1 0.210531 0.531538 0.496225
11 1 0.227747 0.413387 0.531351
12 1 0.24426 0.522968 0.429098
13 1 0.265119 0.57641 0.449725
14 1 0.280652 0.488838 0.326155
15 1 0.300112 0.613151 0.352724
16 1 0.317044 0.531189 0.53389
17 1 0.343881 0.537661 0.517518
18 1 0.361719 0.363192 0.422788
19 1 0.383645 0.453641 0.52065
20 1 0.39947 0.634692 0.487494
21 1 0.410079 0.440739 0.527303
22 1 0.435921 0.448495 0.486265
23 1 0.462166 0.490091 0.490602
24 1 0.481653 0.538276 0.636516
25 1 0.492565 0.505862 0.45143
26 1 0.512535 0.568535 0.414959
27 1 0.529825 0.512924 0.523908
28 1 0.550476 0.498334 0.460954
29 1 0.568884 0.450861 0.532174
30 1 0.588599 0.515462 0.46814
31 1 0.606685 0.461965 0.50938
32 1 0.624015 0.611287 0.479694
33 1 0.636047 0.441764 0.57154
34 1 0.654711 0.534274 0.523321
35 1 0.673679 0.458756 0.490067
36 1 0.691967 0.551596 0.458541
37 1 0.709543 0.444675 0.492195
38 1 0.728994 0.547477 0.423486
39 1 0.75407 0.504104 0.477437
40 1 0.776658 0.404631 0.569035
41 1 0.795732 0.510394 0.520482
42 1 0.816682 0.50714 0.435233
43 1 0.829288 0.566313 0.615226
44 1 0.845952 0.439083 0.538256
45 1 0.864106 0.548243 0.476308
46 1 0.884282 0.497937 0.474245
47 1 0.904698 0.410084 0.535917
48 1 0.927427 0.481909 0.525874
49 1 0.949145 0.510762 0.475957
50 1 0.973563 0.528775 0.457746
ITEM: TIMESTEP
300
ITEM: NUMBER OF ATOMS
50
ITEM: BOX BOUNDS pp pp pp
0.0000000000000000e+00 5.1530000000000001e+01
0.0000000000000000e+00 5.0000000000000000e+00
0.0000000000000000e+00 5.0000000000000000e+00
ITEM: ATOMS id type xs ys zs
1 1 0.0193956 0.433946 0.432161
2 1 0.0417729 0.459807 0.485248
3 1 0.062959 0.502482 0.572531
4 1 0.0860057 0.440652 0.642697
5 1 0.110092 0.49327 0.63016
6 1 0.130758 0.416558 0.548342
7 1 0.150353 0.524989 0.512646
8 1 0.174469 0.564966 0.510161
9 1 0.194025 0.551812 0.670014
10 1 0.211647 0.542463 0.489305
11 1 0.228361 0.355428 0.533384
12 1 0.242505 0.541897 0.439223
13 1 0.266434 0.604541 0.413827
14 1 0.28283 0.50234 0.271316
15 1 0.301808 0.591032 0.379419
16 1 0.323042 0.589879 0.469684
17 1 0.339341 0.452073 0.488061
18 1 0.360111 0.431521 0.490662
19 1 0.383612 0.452395 0.464742
20 1 0.399789 0.614785 0.508809
21 1 0.416897 0.454158 0.508782
22 1 0.439698 0.44542 0.503861
23 1 0.460042 0.484619 0.533854
24 1 0.476351 0.519832 0.650528
25 1 0.488499 0.530248 0.427945
26 1 0.512622 0.570873 0.362656
27 1 0.528817 0.553539 0.534101
28 1 0.549808 0.469444 0.461923
29 1 0.570832 0.419698 0.551063
30 1 0.591227 0.539481 0.44701
31 1 0.612811 0.439087 0.512618
32 1 0.626347 0.620615 0.489875
33 1 0.630537 0.441825 0.587429
34 1 0.650898 0.564122 0.53685
35 1 0.672317 0.425354 0.477304
36 1 0.692566 0.584651 0.439976
37 1 0.712787 0.455794 0.469397
38 1 0.73377 0.511946 0.444123
39 1 0.753178 0.460404 0.494915
40 1 0.773878 0.476885 0.531983
41 1 0.796004 0.46465 0.533883
42 1 0.817867 0.531564 0.436018
43 1 0.827745 0.572741 0.627731
44 1 0.845015 0.445295 0.562969
45 1 0.86425 0.52764 0.419914
46 1 0.885237 0.462772 0.561935
47 1 0.909159 0.495054 0.470207
48 1 0.930942 0.400371 0.534497
49 1 0.948583 0.537179 0.488809
50 1 0.972006 0.5279 0.445451
ITEM: TIMESTEP
400
ITEM: NUMBER OF ATOMS
50
ITEM: BOX BOUNDS pp pp pp
0.0000000000000000e+00 5.1530000000000001e+01
0.0000000000000000e+00 5.0000000000000000e+00
0.0000000000000000e+00 5.0000000000000000e+00
ITEM: ATOMS id type xs ys zs
1 1 0.0204129 0.427942 0.425372
2 1 0.0427907 0.461504 0.521223
3 1 0.0655058 0.485486 0.574604
4 1 0.087542 0.40908 0.623898
5 1 0.107797 0.533914 0.613027
6 1 0.126782 0.414257 0.555046
7 1 0.147133 0.529833 0.564544
8 1 0.171154 0.542297 0.541438
9 1 0.191798 0.576796 0.633656
10 1 0.211615 0.525162 0.528092
11 1 0.229026 0.372725 0.510344
12 1 0.243965 0.532093 0.450912
13 1 0.264265 0.598182 0.379601
14 1 0.282313 0.523126 0.25237
15 1 0.30194 0.585265 0.382402
16 1 0.32543 0.624731 0.435987
17 1 0.336249 0.406417 0.473366
18 1 0.36038 0.4543 0.523128
19 1 0.385027 0.457503 0.441493
20 1 0.399021 0.62204 0.520461
21 1 0.415784 0.449076 0.495586
22 1 0.4385 0.418311 0.497755
23 1 0.461901 0.485768 0.521322
24 1 0.482786 0.52924 0.665024
25 1 0.487788 0.548255 0.44762
26 1 0.508818 0.571522 0.375489
27 1 0.527989 0.560203 0.496386
28 1 0.550629 0.462459 0.490289
29 1 0.573228 0.429971 0.524932
30 1 0.593036 0.515667 0.465517
31 1 0.616192 0.457931 0.504987
32 1 0.627432 0.640256 0.480029
33 1 0.630423 0.433202 0.605431
34 1 0.64883 0.515727 0.541863
35 1 0.669621 0.482014 0.478061
36 1 0.688735 0.57164 0.433325
37 1 0.708817 0.44435 0.461967
38 1 0.732469 0.523514 0.426047
39 1 0.754047 0.421958 0.507578
40 1 0.777252 0.518183 0.53025
41 1 0.800825 0.4264 0.546818
42 1 0.817783 0.551933 0.416491
43 1 0.827815 0.574719 0.64752
44 1 0.84662 0.468093 0.563253
45 1 0.867885 0.477941 0.453039
46 1 0.888819 0.480885 0.528019
47 1 0.909128 0.49148 0.491485
48 1 0.928831 0.39841 0.516294
49 1 0.947504 0.538519 0.497309
50 1 0.970366 0.529718 0.439351
ITEM: TIMESTEP
500
ITEM: NUMBER OF ATOMS
50
ITEM: BOX BOUNDS pp pp pp
0.0000000000000000e+00 5.1530000000000001e+01
0.0000000000000000e+00 5.0000000000000000e+00
0.0000000000000000e+00 5.0000000000000000e+00
ITEM: ATOMS id type xs ys zs
1 1 0.0244854 0.426693 0.429505
2 1 0.0444409 0.465134 0.554944
3 1 0.0663589 0.45546 0.570762
4 1 0.0876333 0.394431 0.600563
5 1 0.104202 0.560058 0.591902
6 1 0.12401 0.440515 0.558968
7 1 0.145185 0.509761 0.620705
8 1 0.167923 0.525215 0.572561
9 1 0.188867 0.595436 0.60476
10 1 0.211117 0.519478 0.547888
11 1 0.22804 0.360436 0.498467
12 1 0.245209 0.535095 0.480424
13 1 0.263403 0.59545 0.324208
14 1 0.285605 0.558095 0.258047
15 1 0.303191 0.578483 0.378068
16 1 0.324702 0.598586 0.393043
17 1 0.339838 0.436356 0.475169
18 1 0.360696 0.449986 0.512439
19 1 0.380556 0.478982 0.452307
20 1 0.397652 0.60209 0.521469
21 1 0.417448 0.449647 0.489077
22 1 0.440225 0.421574 0.498809
23 1 0.462983 0.47769 0.542354
24 1 0.482026 0.519816 0.681837
25 1 0.484673 0.568921 0.428204
26 1 0.509257 0.574427 0.412712
27 1 0.532344 0.533005 0.390868
28 1 0.549572 0.480271 0.581562
29 1 0.572218 0.44978 0.4724
30 1 0.593852 0.49187 0.484346
31 1 0.616974 0.433618 0.504231
32 1 0.630319 0.643413 0.498997
33 1 0.623109 0.451304 0.61564
34 1 0.645926 0.510541 0.544251
35 1 0.670476 0.498606 0.463869
36 1 0.691543 0.577364 0.417913
37 1 0.710781 0.46515 0.442686
38 1 0.733595 0.467255 0.454449
39 1 0.756024 0.471505 0.495307
40 1 0.778139 0.481826 0.524781
41 1 0.799941 0.451411 0.531669
42 1 0.815574 0.547096 0.432092
43 1 0.827148 0.572842 0.651772
44 1 0.847223 0.48691 0.570856
45 1 0.866491 0.430259 0.459829
46 1 0.88774 0.504145 0.51917
47 1 0.911614 0.512422 0.511911
48 1 0.932167 0.36391 0.486611
49 1 0.948371 0.544774 0.514297
50 1 0.96913 0.532909 0.4313
ITEM: TIMESTEP
600
ITEM: NUMBER OF ATOMS
50
ITEM: BOX BOUNDS pp pp pp
0.0000000000000000e+00 5.1530000000000001e+01
0.0000000000000000e+00 5.0000000000000000e+00
0.0000000000000000e+00 5.0000000000000000e+00
ITEM: ATOMS id type xs ys zs
1 1 0.0271329 0.422626 0.425596
2 1 0.0432674 0.473244 0.594554
3 1 0.0672175 0.435632 0.56448
4 1 0.0914266 0.366932 0.582889
5 1 0.100381 0.584889 0.572562
6 1 0.120831 0.462125 0.573786
7 1 0.142451 0.492589 0.66212
8 1 0.166357 0.510812 0.607182
9 1 0.187913 0.616924 0.556308
10 1 0.210116 0.493876 0.590825
11 1 0.228245 0.389847 0.484807
12 1 0.246103 0.52304 0.474366
13 1 0.260127 0.586359 0.305036
14 1 0.283347 0.582442 0.228669
15 1 0.303014 0.576216 0.393448
16 1 0.327381 0.619225 0.343729
17 1 0.336767 0.417626 0.477717
18 1 0.360652 0.44102 0.543657
19 1 0.381896 0.484935 0.416436
20 1 0.402172 0.586145 0.542736
21 1 0.421101 0.469276 0.481459
22 1 0.441275 0.44217 0.501524
23 1 0.462157 0.455267 0.567816
24 1 0.480937 0.515731 0.663626
25 1 0.488134 0.584307 0.439066
26 1 0.512249 0.558162 0.427887
27 1 0.533007 0.512363 0.401813
28 1 0.547928 0.505099 0.549711
29 1 0.57025 0.478643 0.45163
30 1 0.592681 0.460903 0.500268
31 1 0.618107 0.442155 0.505008
32 1 0.635483 0.632497 0.507183
33 1 0.620828 0.465736 0.61068
34 1 0.642188 0.49283 0.542943
35 1 0.665843 0.529456 0.46992
36 1 0.688937 0.582203 0.407966
37 1 0.711826 0.476484 0.422557
38 1 0.734527 0.404555 0.48134
39 1 0.754934 0.530344 0.478007
40 1 0.777014 0.445949 0.525437
41 1 0.802285 0.44248 0.552358
42 1 0.819754 0.57402 0.431752
43 1 0.824646 0.571222 0.64365
44 1 0.847934 0.498455 0.575663
45 1 0.867374 0.401775 0.471074
46 1 0.889355 0.511469 0.507615
47 1 0.912518 0.491437 0.517056
48 1 0.93202 0.38885 0.480355
49 1 0.94905 0.530617 0.518169
50 1 0.968861 0.539041 0.425562
ITEM: TIMESTEP
700
ITEM: NUMBER OF ATOMS
50
ITEM: BOX BOUNDS pp pp pp
0.0000000000000000e+00 5.1530000000000001e+01
0.0000000000000000e+00 5.0000000000000000e+00
0.0000000000000000e+00 5.0000000000000000e+00
ITEM: ATOMS id type xs ys zs
1 1 0.0323889 0.424464 0.444485
2 1 0.047134 0.464135 0.608647
3 1 0.0676594 0.404326 0.572494
4 1 0.0897152 0.358147 0.555844
5 1 0.0979938 0.5864 0.542609
6 1 0.120099 0.533222 0.625215
7 1 0.142226 0.45379 0.660054
8 1 0.164732 0.531706 0.652889
9 1 0.184404 0.562562 0.547095
10 1 0.2053 0.494339 0.588263
11 1 0.224297 0.422763 0.494409
12 1 0.248457 0.517551 0.468483
13 1 0.260644 0.57021 0.258209
14 1 0.282669 0.618694 0.288938
15 1 0.304147 0.590887 0.317586
16 1 0.324926 0.564917 0.344595
17 1 0.33926 0.465804 0.466679
18 1 0.360198 0.436141 0.506729
19 1 0.379661 0.495003 0.453269
20 1 0.398623 0.579549 0.543355
21 1 0.417221 0.479879 0.45633
22 1 0.442221 0.437537 0.47511
23 1 0.467354 0.417883 0.602567
24 1 0.488148 0.537862 0.661512
25 1 0.489362 0.615727 0.466437
26 1 0.512369 0.534646 0.453882
27 1 0.535143 0.471566 0.38008
28 1 0.551652 0.533877 0.53198
29 1 0.574472 0.514247 0.449845
30 1 0.594323 0.414175 0.507553
31 1 0.613884 0.54047 0.505401
32 1 0.637153 0.572553 0.497555
33 1 0.620257 0.458124 0.614453
34 1 0.642607 0.473781 0.52132
35 1 0.663575 0.581204 0.474064
36 1 0.685956 0.518853 0.431723
37 1 0.710712 0.496359 0.423459
38 1 0.732381 0.421031 0.478404
39 1 0.75547 0.503275 0.483119
40 1 0.777409 0.456008 0.516456
41 1 0.800411 0.465881 0.529
42 1 0.819275 0.566834 0.429667
43 1 0.828329 0.547215 0.655496
44 1 0.848472 0.504445 0.563679
45 1 0.866895 0.428108 0.545612
46 1 0.888202 0.490774 0.458867
47 1 0.910222 0.464402 0.536706
48 1 0.929954 0.40332 0.461635
49 1 0.950148 0.517065 0.547068
50 1 0.971888 0.558285 0.401175
ITEM: TIMESTEP
800
ITEM: NUMBER OF ATOMS
50
ITEM: BOX BOUNDS pp pp pp
0.0000000000000000e+00 5.1530000000000001e+01
0.0000000000000000e+00 5.0000000000000000e+00
0.0000000000000000e+00 5.0000000000000000e+00
ITEM: ATOMS id type xs ys zs
1 1 0.0358126 0.421488 0.440867
2 1 0.0480636 0.475892 0.656164
3 1 0.0690019 0.363933 0.57516
4 1 0.0926176 0.346254 0.523502
5 1 0.0996776 0.57881 0.535904
6 1 0.119675 0.58104 0.656866
7 1 0.139029 0.453411 0.658844
8 1 0.160917 0.546064 0.700533
9 1 0.178558 0.500631 0.533979
10 1 0.203246 0.480603 0.572517
11 1 0.225421 0.512908 0.522043
12 1 0.246846 0.479778 0.425377
13 1 0.257264 0.549356 0.248217
14 1 0.276827 0.659358 0.322725
15 1 0.300694 0.612247 0.248523
16 1 0.325708 0.552617 0.285407
17 1 0.337893 0.480562 0.505543
18 1 0.362377 0.38171 0.517055
19 1 0.382401 0.510789 0.441848
20 1 0.403397 0.574885 0.551573
21 1 0.423772 0.488524 0.46033
22 1 0.445611 0.439778 0.520325
23 1 0.466721 0.44949 0.588259
24 1 0.484993 0.498093 0.65561
25 1 0.494683 0.620567 0.469691
26 1 0.512995 0.529515 0.448631
27 1 0.535015 0.454059 0.396964
28 1 0.555466 0.553797 0.493368
29 1 0.578798 0.550249 0.456919
30 1 0.597775 0.407485 0.511075
31 1 0.612223 0.589576 0.503226
32 1 0.634966 0.534572 0.473101
33 1 0.621334 0.443366 0.617357
34 1 0.644249 0.482699 0.506956
35 1 0.664461 0.58309 0.47288
36 1 0.683663 0.45324 0.471515
37 1 0.707637 0.506515 0.447206
38 1 0.730796 0.522151 0.449556
39 1 0.752066 0.386324 0.506646
40 1 0.774108 0.503865 0.495498
41 1 0.797996 0.492291 0.496978
42 1 0.818803 0.554661 0.440319
43 1 0.825963 0.534955 0.687034
44 1 0.848592 0.522843 0.538124
45 1 0.870574 0.422759 0.596846
46 1 0.887842 0.476006 0.431897
47 1 0.909168 0.444128 0.541698
48 1 0.931487 0.429337 0.465746
49 1 0.952277 0.493976 0.522422
50 1 0.970541 0.569754 0.411175
ITEM: TIMESTEP
900
ITEM: NUMBER OF ATOMS
50
ITEM: BOX BOUNDS pp pp pp
0.0000000000000000e+00 5.1530000000000001e+01
0.0000000000000000e+00 5.0000000000000000e+00
0.0000000000000000e+00 5.0000000000000000e+00
ITEM: ATOMS id type xs ys zs
1 1 0.0397909 0.425243 0.457696
2 1 0.0520479 0.456877 0.661002
3 1 0.0707739 0.348337 0.582818
4 1 0.0908963 0.351296 0.50821
5 1 0.101736 0.555047 0.530322
6 1 0.119326 0.625642 0.686082
7 1 0.137603 0.467289 0.657531
8 1 0.158974 0.53735 0.70433
9 1 0.175402 0.454602 0.565051
10 1 0.19987 0.48777 0.550597
11 1 0.222899 0.549202 0.534905
12 1 0.243821 0.468415 0.416189
13 1 0.258346 0.548171 0.232494
14 1 0.278886 0.659916 0.311593
15 1 0.300562 0.617183 0.24066
16 1 0.320248 0.54063 0.328466
17 1 0.33993 0.482805 0.425803
18 1 0.361036 0.425644 0.498423
19 1 0.382421 0.49366 0.480845
20 1 0.403837 0.546208 0.524959
21 1 0.42555 0.519057 0.458968
22 1 0.443255 0.417598 0.558909
23 1 0.4661 0.47956 0.565294
24 1 0.488438 0.469593 0.662648
25 1 0.498949 0.643423 0.506818
26 1 0.514912 0.507568 0.397553
27 1 0.539585 0.46054 0.467676
28 1 0.560027 0.550949 0.427048
29 1 0.579976 0.565295 0.471681
30 1 0.599215 0.421911 0.508847
31 1 0.614485 0.623623 0.506644
32 1 0.634279 0.531414 0.410399
33 1 0.624711 0.412663 0.620092
34 1 0.642171 0.50542 0.520401
35 1 0.663312 0.551635 0.477925
36 1 0.684601 0.421155 0.503155
37 1 0.707934 0.510435 0.471225
38 1 0.729556 0.535528 0.452839
39 1 0.747465 0.397401 0.495213
40 1 0.768479 0.495635 0.482524
41 1 0.792992 0.516779 0.472669
42 1 0.816855 0.544922 0.457337
43 1 0.829655 0.523909 0.657843
44 1 0.849742 0.505111 0.58022
45 1 0.870217 0.465467 0.596761
46 1 0.8861 0.447368 0.451746
47 1 0.907287 0.414554 0.513531
48 1 0.930961 0.46673 0.484624
49 1 0.954024 0.472102 0.511345
50 1 0.970758 0.581371 0.410087
ITEM: TIMESTEP
1000
ITEM: NUMBER OF ATOMS
50
ITEM: BOX BOUNDS pp pp pp
0.0000000000000000e+00 5.1530000000000001e+01
0.0000000000000000e+00 5.0000000000000000e+00
0.0000000000000000e+00 5.0000000000000000e+00
ITEM: ATOMS id type xs ys zs
1 1 0.0433473 0.427603 0.473837
2 1 0.0525047 0.459612 0.677473
3 1 0.0713471 0.314907 0.591994
4 1 0.0929252 0.347955 0.478874
5 1 0.104918 0.549671 0.535416
6 1 0.118945 0.647474 0.698103
7 1 0.135821 0.489794 0.661597
8 1 0.158526 0.521619 0.696487
9 1 0.177525 0.428284 0.601707
10 1 0.198078 0.511181 0.523991
11 1 0.219891 0.523607 0.521731
12 1 0.237649 0.524806 0.376288
13 1 0.25885 0.531676 0.298458
14 1 0.278827 0.642139 0.282378
15 1 0.300846 0.62234 0.233025
16 1 0.316229 0.519444 0.409318
17 1 0.339614 0.491054 0.305516
18 1 0.357014 0.47267 0.48717
19 1 0.381274 0.466305 0.516562
20 1 0.404751 0.539487 0.516111
21 1 0.428237 0.52933 0.454621
22 1 0.44487 0.424489 0.571657
23 1 0.466502 0.480514 0.572251
24 1 0.489798 0.479513 0.642092
25 1 0.503773 0.61077 0.529334
26 1 0.51866 0.509988 0.411007
27 1 0.540059 0.471517 0.479143
28 1 0.560616 0.544263 0.380384
29 1 0.582403 0.595949 0.487755
30 1 0.603442 0.434202 0.509505
31 1 0.614882 0.633553 0.508044
32 1 0.631737 0.503202 0.406866
33 1 0.624634 0.390656 0.604041
34 1 0.643327 0.548233 0.504487
35 1 0.666436 0.510258 0.477885
36 1 0.686019 0.418034 0.526905
37 1 0.706129 0.504611 0.500187
38 1 0.727207 0.55177 0.452259
39 1 0.746574 0.418613 0.483039
40 1 0.767321 0.465411 0.474475
41 1 0.787926 0.560381 0.439456
42 1 0.810409 0.52242 0.488788
43 1 0.82531 0.520232 0.653535
44 1 0.848121 0.504292 0.583426
45 1 0.874244 0.484084 0.641408
46 1 0.887167 0.422821 0.425833
47 1 0.908434 0.394768 0.497287
48 1 0.930735 0.488657 0.497506
49 1 0.954496 0.446896 0.506064
50 1 0.971645 0.598945 0.404725
ITEM: TIMESTEP
1100
ITEM: NUMBER OF ATOMS
50
ITEM: BOX BOUNDS pp pp pp
0.0000000000000000e+00 5.1530000000000001e+01
0.0000000000000000e+00 5.0000000000000000e+00
0.0000000000000000e+00 5.0000000000000000e+00
ITEM: ATOMS id type xs ys zs
13 1 0.258853 0.516715 0.340989
14 1 0.280478 0.631031 0.260729
15 1 0.303812 0.608627 0.258287
17 1 0.337461 0.507181 0.30004
3 1 0.0726234 0.317504 0.593991
1 1 0.0463639 0.426258 0.473573
4 1 0.0916824 0.35953 0.478494
5 1 0.107418 0.5298 0.542818
7 1 0.134095 0.514584 0.668608
9 1 0.179457 0.395538 0.650408
10 1 0.193362 0.534411 0.496035
11 1 0.217565 0.513256 0.522031
12 1 0.233895 0.562013 0.338599
16 1 0.318146 0.507261 0.415765
18 1 0.356913 0.507852 0.426274
19 1 0.378286 0.479371 0.519712
20 1 0.401496 0.505515 0.500207
21 1 0.425435 0.533444 0.467041
22 1 0.445594 0.445467 0.57458
23 1 0.467456 0.472222 0.588803
24 1 0.490428 0.476692 0.632106
25 1 0.507063 0.609236 0.564248
26 1 0.523525 0.498572 0.391596
27 1 0.544718 0.496979 0.484672
28 1 0.565338 0.531124 0.379161
29 1 0.584172 0.570779 0.476184
30 1 0.601696 0.480362 0.505287
31 1 0.616739 0.648103 0.50427
32 1 0.629995 0.50233 0.374875
33 1 0.627527 0.382601 0.600266
34 1 0.641453 0.552092 0.508357
35 1 0.664206 0.483162 0.48116
36 1 0.683886 0.38898 0.555588
37 1 0.705177 0.505556 0.532858
38 1 0.727735 0.604807 0.434393
39 1 0.743512 0.398478 0.4799
40 1 0.767252 0.44312 0.466648
41 1 0.785251 0.606151 0.406846
42 1 0.8064 0.5045 0.513771
43 1 0.82767 0.511021 0.628384
44 1 0.849234 0.500489 0.651497
45 1 0.870631 0.500784 0.581734
46 1 0.888428 0.404724 0.473443
47 1 0.910973 0.393492 0.469134
48 1 0.931648 0.488095 0.514413
49 1 0.952542 0.452225 0.482804
50 1 0.970101 0.593883 0.415428
2 1 0.0571619 0.4365 0.693911
6 1 0.117361 0.66823 0.703367
8 1 0.157787 0.49935 0.676716
ITEM: TIMESTEP
1200
ITEM: NUMBER OF ATOMS
50
ITEM: BOX BOUNDS pp pp pp
0.0000000000000000e+00 5.1530000000000001e+01
0.0000000000000000e+00 5.0000000000000000e+00
0.0000000000000000e+00 5.0000000000000000e+00
ITEM: ATOMS id type xs ys zs
13 1 0.256977 0.577405 0.355863
14 1 0.278602 0.558779 0.270125
15 1 0.30146 0.592424 0.294399
17 1 0.336602 0.519223 0.306828
3 1 0.073938 0.294522 0.594828
1 1 0.0507786 0.424957 0.485986
4 1 0.0928994 0.37535 0.457411
5 1 0.1111 0.512064 0.558645
7 1 0.13455 0.537634 0.674553
9 1 0.180697 0.408147 0.665646
10 1 0.191902 0.523381 0.50892
11 1 0.214605 0.522754 0.441472
12 1 0.235117 0.565756 0.366432
16 1 0.31826 0.50064 0.425599
18 1 0.361061 0.547793 0.321521
19 1 0.376092 0.515143 0.533424
20 1 0.397598 0.457029 0.479611
21 1 0.419078 0.524547 0.495378
22 1 0.442868 0.468583 0.569538
23 1 0.46739 0.467334 0.599735
24 1 0.493611 0.471548 0.629375
25 1 0.513524 0.6006 0.586774
26 1 0.527218 0.497287 0.392042
27 1 0.546397 0.514852 0.489717
28 1 0.565198 0.513973 0.338504
29 1 0.586086 0.594726 0.482175
30 1 0.606375 0.471056 0.517431
31 1 0.620582 0.683832 0.499022
32 1 0.627333 0.489385 0.367605
33 1 0.630634 0.382088 0.577558
34 1 0.642177 0.560185 0.497992
35 1 0.662895 0.432304 0.501362
36 1 0.685878 0.42262 0.566007
37 1 0.705116 0.502436 0.540327
38 1 0.724539 0.553298 0.469353
39 1 0.743157 0.460139 0.456766
40 1 0.764762 0.453832 0.442863
41 1 0.782907 0.576822 0.415272
42 1 0.800281 0.51829 0.55013
43 1 0.825336 0.499912 0.58019
44 1 0.847275 0.503661 0.694852
45 1 0.868007 0.51373 0.562886
46 1 0.888339 0.381648 0.49725
47 1 0.913664 0.372455 0.426668
48 1 0.932038 0.511685 0.548187
49 1 0.95287 0.438161 0.461608
50 1 0.970224 0.603258 0.418479
2 1 0.0584995 0.43103 0.718968
6 1 0.115452 0.686322 0.704397
8 1 0.158052 0.465399 0.660324
ITEM: TIMESTEP
1300
ITEM: NUMBER OF ATOMS
50
ITEM: BOX BOUNDS pp pp pp
0.0000000000000000e+00 5.1530000000000001e+01
0.0000000000000000e+00 5.0000000000000000e+00
0.0000000000000000e+00 5.0000000000000000e+00
ITEM: ATOMS id type xs ys zs
13 1 0.259309 0.638639 0.368185
14 1 0.27591 0.476414 0.277201
15 1 0.297867 0.580548 0.343207
17 1 0.340161 0.54037 0.304911
3 1 0.0766789 0.29732 0.580646
1 1 0.0559307 0.421591 0.507597
4 1 0.0937141 0.39689 0.469996
5 1 0.112864 0.476787 0.561726
7 1 0.138945 0.593104 0.689551
9 1 0.177184 0.429098 0.696226
10 1 0.189348 0.52155 0.517237
11 1 0.210393 0.527351 0.358329
12 1 0.235214 0.577079 0.386533
16 1 0.319979 0.495083 0.431383
18 1 0.362563 0.574822 0.288791
19 1 0.374052 0.543643 0.471496
20 1 0.395993 0.436814 0.475868
21 1 0.419386 0.472508 0.551414
22 1 0.445252 0.524897 0.546005
23 1 0.466532 0.460245 0.614199
24 1 0.490467 0.520281 0.583227
25 1 0.513007 0.519221 0.590752
26 1 0.527816 0.508097 0.424767
27 1 0.549818 0.540328 0.49271
28 1 0.568116 0.530278 0.35249
29 1 0.588948 0.53622 0.43986
30 1 0.60784 0.535701 0.531877
31 1 0.624822 0.694141 0.497738
32 1 0.625975 0.469375 0.369484
33 1 0.631869 0.377665 0.544852
34 1 0.644725 0.571021 0.480443
35 1 0.65733 0.385498 0.515617
36 1 0.679954 0.417863 0.599182
37 1 0.701925 0.504032 0.585771
38 1 0.721856 0.591109 0.469856
39 1 0.743102 0.484235 0.426167
40 1 0.76843 0.414227 0.417893
41 1 0.786884 0.580529 0.434824
42 1 0.800635 0.529246 0.576488
43 1 0.823295 0.492302 0.565124
44 1 0.845924 0.517266 0.640956
45 1 0.867962 0.445104 0.558873
46 1 0.889651 0.425084 0.523958
47 1 0.909803 0.408175 0.469794
48 1 0.929271 0.474291 0.525979
49 1 0.951064 0.447006 0.444229
50 1 0.968893 0.599329 0.426445
2 1 0.0615033 0.410732 0.732498
6 1 0.117324 0.665612 0.697349
8 1 0.154516 0.421279 0.640298
ITEM: TIMESTEP
1400
ITEM: NUMBER OF ATOMS
50
ITEM: BOX BOUNDS pp pp pp
0.0000000000000000e+00 5.1530000000000001e+01
0.0000000000000000e+00 5.0000000000000000e+00
0.0000000000000000e+00 5.0000000000000000e+00
ITEM: ATOMS id type xs ys zs
13 1 0.255758 0.619534 0.360372
14 1 0.274384 0.483092 0.334626
15 1 0.295288 0.510887 0.387541
17 1 0.340992 0.557131 0.324351
3 1 0.0778407 0.297617 0.579208
1 1 0.0606848 0.418993 0.517213
4 1 0.0944515 0.413574 0.467891
5 1 0.116306 0.440575 0.566772
7 1 0.142397 0.61385 0.692628
9 1 0.175865 0.46736 0.671014
10 1 0.192198 0.503156 0.501766
11 1 0.211155 0.554291 0.367576
12 1 0.232797 0.587482 0.381396
16 1 0.31716 0.517246 0.397224
18 1 0.363101 0.600744 0.243556
19 1 0.378328 0.541253 0.410193
20 1 0.400708 0.476063 0.521651
21 1 0.422223 0.419947 0.569417
22 1 0.442112 0.529775 0.549568
23 1 0.462569 0.4915 0.594744
24 1 0.486463 0.558769 0.547387
25 1 0.508179 0.436027 0.589475
26 1 0.526525 0.513533 0.454292
27 1 0.5521 0.566044 0.507945
28 1 0.567713 0.531068 0.332996
29 1 0.59134 0.511111 0.413541
30 1 0.612187 0.552359 0.561603
31 1 0.631994 0.686542 0.471665
32 1 0.623341 0.516018 0.355127
33 1 0.635874 0.379626 0.545397
34 1 0.644995 0.54983 0.472485
35 1 0.654734 0.358151 0.537097
36 1 0.676543 0.422037 0.617779
37 1 0.6996 0.512116 0.596667
38 1 0.722621 0.56178 0.481962
39 1 0.743641 0.515475 0.418759
40 1 0.76536 0.434561 0.398727
41 1 0.785884 0.567446 0.422982
42 1 0.801391 0.53513 0.63213
43 1 0.824132 0.482159 0.549473
44 1 0.845062 0.52489 0.58081
45 1 0.862989 0.373884 0.563332
46 1 0.885331 0.485927 0.571986
47 1 0.90791 0.413947 0.471327
48 1 0.930573 0.460571 0.534264
49 1 0.95191 0.446101 0.414673
50 1 0.968173 0.601288 0.433089
2 1 0.0647004 0.389685 0.753202
6 1 0.119969 0.662537 0.697466
8 1 0.152446 0.407318 0.633654
ITEM: TIMESTEP
1500
ITEM: NUMBER OF ATOMS
50
ITEM: BOX BOUNDS pp pp pp
0.0000000000000000e+00 5.1530000000000001e+01
0.0000000000000000e+00 5.0000000000000000e+00
0.0000000000000000e+00 5.0000000000000000e+00
ITEM: ATOMS id type xs ys zs
13 1 0.253186 0.61259 0.344227
14 1 0.272767 0.48122 0.384856
15 1 0.296727 0.44484 0.431821
17 1 0.342075 0.574758 0.332897
3 1 0.0791117 0.298806 0.572211
1 1 0.0649883 0.416473 0.530426
4 1 0.097133 0.432007 0.479134
5 1 0.117663 0.432822 0.576961
7 1 0.145994 0.632796 0.69372
9 1 0.173372 0.511618 0.607397
10 1 0.193796 0.465857 0.513769
11 1 0.208721 0.582581 0.382226
12 1 0.230118 0.60176 0.377818
16 1 0.317749 0.541856 0.359609
18 1 0.363176 0.601888 0.256039
19 1 0.383977 0.538721 0.355903
20 1 0.402341 0.507036 0.533878
21 1 0.420138 0.379636 0.580258
22 1 0.439942 0.541294 0.553448
23 1 0.4633 0.539127 0.566187
24 1 0.486187 0.545214 0.539705
25 1 0.505922 0.425757 0.523477
26 1 0.526548 0.507824 0.545998
27 1 0.54987 0.558759 0.459158
28 1 0.571088 0.53486 0.398118
29 1 0.593781 0.507364 0.426389
30 1 0.613989 0.602365 0.483341
31 1 0.633456 0.66539 0.505151
32 1 0.622158 0.488424 0.36447
33 1 0.633726 0.364733 0.522983
34 1 0.648215 0.555385 0.45212
35 1 0.656676 0.377753 0.565643
36 1 0.67767 0.447411 0.607446
37 1 0.697285 0.516295 0.555993
38 1 0.720978 0.472563 0.532401
39 1 0.740867 0.561682 0.428747
40 1 0.763686 0.488695 0.390919
41 1 0.783622 0.520051 0.45473
42 1 0.800669 0.545972 0.62154
43 1 0.822922 0.478671 0.540415
44 1 0.845176 0.515105 0.536295
45 1 0.863584 0.364596 0.567982
46 1 0.882737 0.475605 0.575587
47 1 0.905379 0.451728 0.519885
48 1 0.92798 0.440208 0.510718
49 1 0.950157 0.447187 0.407799
50 1 0.96749 0.602317 0.437546
2 1 0.0673103 0.37098 0.770056
6 1 0.121466 0.63095 0.681745
8 1 0.153131 0.398474 0.640856
ITEM: TIMESTEP
1600
ITEM: NUMBER OF ATOMS
50
ITEM: BOX BOUNDS pp pp pp
0.0000000000000000e+00 5.1530000000000001e+01
0.0000000000000000e+00 5.0000000000000000e+00
0.0000000000000000e+00 5.0000000000000000e+00
ITEM: ATOMS id type xs ys zs
13 1 0.255806 0.589669 0.346598
14 1 0.274949 0.487771 0.42402
15 1 0.298805 0.427069 0.43879
17 1 0.341087 0.585483 0.335842
3 1 0.0804259 0.30433 0.569807
1 1 0.0689443 0.413936 0.545087
4 1 0.0984487 0.440173 0.485863
5 1 0.119168 0.420147 0.581851
7 1 0.14752 0.625722 0.689682
9 1 0.171542 0.535131 0.565107
10 1 0.192889 0.43734 0.528253
11 1 0.204419 0.606337 0.383173
12 1 0.230142 0.617831 0.373738
16 1 0.317095 0.542625 0.341717
18 1 0.364431 0.583032 0.30791
19 1 0.388414 0.54403 0.31456
20 1 0.40247 0.531719 0.51481
21 1 0.418104 0.380809 0.577491
22 1 0.438202 0.529585 0.561162
23 1 0.461669 0.572685 0.542321
24 1 0.485372 0.537329 0.523274
25 1 0.508364 0.438063 0.47273
26 1 0.527965 0.496937 0.609447
27 1 0.544973 0.535599 0.421428
28 1 0.56886 0.541413 0.461206
29 1 0.593094 0.48417 0.427089
30 1 0.614398 0.640128 0.424582
31 1 0.638265 0.619843 0.502192
32 1 0.623538 0.526432 0.39285
33 1 0.634503 0.363463 0.51755
34 1 0.647062 0.552913 0.419185
35 1 0.655138 0.366838 0.602089
36 1 0.679738 0.471206 0.614075
37 1 0.700884 0.522279 0.517126
38 1 0.721423 0.417788 0.55355
39 1 0.735801 0.583821 0.45749
40 1 0.760606 0.534652 0.383761
41 1 0.78164 0.490793 0.47737