ITEM: TIMESTEP
0
ITEM: NUMBER OF ATOMS
100
ITEM: BOX BOUNDS pp pp pp
0.0000000000000000e+00 1.0003000000000000e+02
0.0000000000000000e+00 5.0000000000000000e+00
0.0000000000000000e+00 5.0000000000000000e+00
ITEM: ATOMS id type xs ys zs
1 1 0.019994 0.5 0.5
2 1 0.0296911 0.5 0.5
3 1 0.0393882 0.5 0.5
4 1 0.0490853 0.5 0.5
5 1 0.0587824 0.5 0.5
6 1 0.0684795 0.5 0.5
7 1 0.0781765 0.5 0.5
8 1 0.0878736 0.5 0.5
9 1 0.0975707 0.5 0.5
10 1 0.107268 0.5 0.5
11 1 0.116965 0.5 0.5
12 1 0.126662 0.5 0.5
13 1 0.136359 0.5 0.5
14 1 0.146056 0.5 0.5
15 1 0.155753 0.5 0.5
16 1 0.16545 0.5 0.5
17 1 0.175147 0.5 0.5
18 1 0.184845 0.5 0.5
19 1 0.194542 0.5 0.5
20 1 0.204239 0.5 0.5
21 1 0.213936 0.5 0.5
22 1 0.223633 0.5 0.5
23 1 0.23333 0.5 0.5
24 1 0.243027 0.5 0.5
25 1 0.252724 0.5 0.5
26 1 0.262421 0.5 0.5
27 1 0.272118 0.5 0.5
28 1 0.281815 0.5 0.5
29 1 0.291513 0.5 0.5
30 1 0.30121 0.5 0.5
31 1 0.310907 0.5 0.5
32 1 0.320604 0.5 0.5
33 1 0.330301 0.5 0.5
34 1 0.339998 0.5 0.5
35 1 0.349695 0.5 0.5
36 1 0.359392 0.5 0.5
37 1 0.369089 0.5 0.5
38 1 0.378786 0.5 0.5
39 1 0.388483 0.5 0.5
40 1 0.398181 0.5 0.5
41 1 0.407878 0.5 0.5
42 1 0.417575 0.5 0.5
43 1 0.427272 0.5 0.5
44 1 0.436969 0.5 0.5
45 1 0.446666 0.5 0.5
46 1 0.456363 0.5 0.5
47 1 0.46606 0.5 0.5
48 1 0.475757 0.5 0.5
49 1 0.485454 0.5 0.5
50 1 0.495151 0.5 0.5
51 1 0.504849 0.5 0.5
52 1 0.514546 0.5 0.5
53 1 0.524243 0.5 0.5
54 1 0.53394 0.5 0.5
55 1 0.543637 0.5 0.5
56 1 0.553334 0.5 0.5
57 1 0.563031 0.5 0.5
58 1 0.572728 0.5 0.5
59 1 0.582425 0.5 0.5
60 1 0.592122 0.5 0.5
61 1 0.601819 0.5 0.5
62 1 0.611517 0.5 0.5
63 1 0.621214 0.5 0.5
64 1 0.630911 0.5 0.5
65 1 0.640608 0.5 0.5
66 1 0.650305 0.5 0.5
67 1 0.660002 0.5 0.5
68 1 0.669699 0.5 0.5
69 1 0.679396 0.5 0.5
70 1 0.689093 0.5 0.5
71 1 0.69879 0.5 0.5
72 1 0.708487 0.5 0.5
73 1 0.718185 0.5 0.5
74 1 0.727882 0.5 0.5
75 1 0.737579 0.5 0.5
76 1 0.747276 0.5 0.5
77 1 0.756973 0.5 0.5
78 1 0.76667 0.5 0.5
79 1 0.776367 0.5 0.5
80 1 0.786064 0.5 0.5
81 1 0.795761 0.5 0.5
82 1 0.805458 0.5 0.5
83 1 0.815155 0.5 0.5
84 1 0.824853 0.5 0.5
85 1 0.83455 0.5 0.5
86 1 0.844247 0.5 0.5
87 1 0.853944 0.5 0.5
88 1 0.863641 0.5 0.5
89 1 0.873338 0.5 0.5
90 1 0.883035 0.5 0.5
91 1 0.892732 0.5 0.5
92 1 0.902429 0.5 0.5
93 1 0.912126 0.5 0.5
94 1 0.921823 0.5 0.5
95 1 0.931521 0.5 0.5
96 1 0.941218 0.5 0.5
97 1 0.950915 0.5 0.5
98 1 0.960612 0.5 0.5
99 1 0.970309 0.5 0.5
100 1 0.980006 0.5 0.5
ITEM: TIMESTEP
100
ITEM: NUMBER OF ATOMS
100
ITEM: BOX BOUNDS pp pp pp
0.0000000000000000e+00 1.0003000000000000e+02
0.0000000000000000e+00 5.0000000000000000e+00
0.0000000000000000e+00 5.0000000000000000e+00
ITEM: ATOMS id type xs ys zs
1 1 0.0132456 0.468576 0.467108
2 1 0.0253724 0.479381 0.446054
3 1 0.03671 0.496623 0.562799
4 1 0.0484068 0.525672 0.582743
5 1 0.0583709 0.443643 0.569766
6 1 0.0685705 0.493386 0.53712
7 1 0.0785319 0.488295 0.467971
8 1 0.0882701 0.572667 0.50602
9 1 0.0982313 0.493196 0.613987
10 1 0.107551 0.55396 0.452161
11 1 0.117023 0.417491 0.551965
12 1 0.125886 0.524505 0.421404
13 1 0.13694 0.578153 0.503524
14 1 0.146432 0.474759 0.371464
15 1 0.156541 0.571382 0.416436
16 1 0.165551 0.52301 0.507043
17 1 0.175788 0.519298 0.50255
18 1 0.185565 0.438401 0.460533
19 1 0.195154 0.475562 0.50875
20 1 0.20395 0.591841 0.485358
21 1 0.21341 0.456955 0.516391
22 1 0.223856 0.474527 0.49206
23 1 0.234408 0.495735 0.493951
24 1 0.244622 0.539397 0.612597
25 1 0.253025 0.475236 0.440737
26 1 0.263792 0.585459 0.410697
27 1 0.272672 0.484092 0.564592
28 1 0.282701 0.523384 0.430075
29 1 0.291853 0.438716 0.563848
30 1 0.301919 0.552988 0.440811
31 1 0.312082 0.435347 0.528827
32 1 0.320718 0.640177 0.458093
33 1 0.32839 0.402841 0.567412
34 1 0.338035 0.576107 0.505732
35 1 0.348445 0.422916 0.497927
36 1 0.358178 0.587374 0.456894
37 1 0.367683 0.433535 0.510513
38 1 0.377286 0.546692 0.441811
39 1 0.387963 0.50988 0.48235
40 1 0.397749 0.420698 0.550983
41 1 0.407913 0.539438 0.51662
42 1 0.419358 0.479315 0.414377
43 1 0.42758 0.590195 0.613258
44 1 0.435808 0.394979 0.510001
45 1 0.444941 0.598903 0.501425
46 1 0.456471 0.513217 0.430563
47 1 0.465236 0.385646 0.562198
48 1 0.474322 0.536092 0.522387
49 1 0.484866 0.485642 0.467689
50 1 0.496669 0.528113 0.439883
51 1 0.505238 0.569362 0.617082
52 1 0.512935 0.45562 0.443092
53 1 0.523772 0.52871 0.500755
54 1 0.533277 0.45948 0.559078
55 1 0.542435 0.483877 0.430019
56 1 0.552565 0.525323 0.506684
57 1 0.561948 0.424961 0.537909
58 1 0.572113 0.555685 0.513458
59 1 0.580572 0.401885 0.461769
60 1 0.591042 0.390802 0.554947
61 1 0.600361 0.559944 0.53117
62 1 0.61082 0.514186 0.471846
63 1 0.620644 0.433951 0.52739
64 1 0.630552 0.532501 0.443632
65 1 0.640811 0.454538 0.484986
66 1 0.651223 0.547871 0.473855
67 1 0.659652 0.379279 0.540629
68 1 0.669464 0.532586 0.548729
69 1 0.678446 0.400736 0.412389
70 1 0.687141 0.511133 0.536947
71 1 0.697857 0.467692 0.534715
72 1 0.707633 0.567756 0.490267
73 1 0.717174 0.487144 0.522487
74 1 0.727708 0.490352 0.487921
75 1 0.738179 0.527423 0.506251
76 1 0.748273 0.543805 0.533683
77 1 0.758677 0.444339 0.547713
78 1 0.768004 0.56317 0.417889
79 1 0.776569 0.47025 0.619335
80 1 0.785812 0.569014 0.48469
81 1 0.795675 0.476102 0.411161
82 1 0.806294 0.455019 0.504715
83 1 0.815528 0.608168 0.493748
84 1 0.825051 0.463111 0.534848
85 1 0.835923 0.543262 0.495381
86 1 0.844125 0.389509 0.395201
87 1 0.854342 0.433064 0.539934
88 1 0.864163 0.588024 0.548992
89 1 0.873129 0.429422 0.470278
90 1 0.883271 0.547991 0.484279
91 1 0.894294 0.601908 0.534037
92 1 0.903276 0.433209 0.589413
93 1 0.911981 0.514715 0.424068
94 1 0.922744 0.436108 0.483986
95 1 0.933103 0.498962 0.469603
96 1 0.943904 0.41277 0.471019
97 1 0.952053 0.61416 0.543078
98 1 0.962976 0.521591 0.473056
99 1 0.97543 0.525837 0.493104
100 1 0.987803 0.530292 0.519319
ITEM: TIMESTEP
200
ITEM: NUMBER OF ATOMS
100
ITEM: BOX BOUNDS pp pp pp
0.0000000000000000e+00 1.0003000000000000e+02
0.0000000000000000e+00 5.0000000000000000e+00
0.0000000000000000e+00 5.0000000000000000e+00
ITEM: ATOMS id type xs ys zs
1 1 0.00975027 0.448738 0.441931
2 1 0.0220591 0.468041 0.444061
3 1 0.0325523 0.50039 0.579308
4 1 0.0448101 0.528752 0.636751
5 1 0.0557768 0.39366 0.630116
6 1 0.0686938 0.49905 0.568045
7 1 0.0808114 0.488401 0.431151
8 1 0.090615 0.599811 0.522087
9 1 0.100355 0.5298 0.625603
10 1 0.108275 0.536931 0.496665
11 1 0.117181 0.419531 0.52611
12 1 0.125655 0.529687 0.426248
13 1 0.136327 0.583041 0.440285
14 1 0.144399 0.499237 0.318576
15 1 0.154429 0.620733 0.345622
16 1 0.163121 0.541053 0.527927
17 1 0.176976 0.542001 0.513662
18 1 0.18621 0.368454 0.420211
19 1 0.197452 0.459592 0.515941
20 1 0.205611 0.640417 0.485321
21 1 0.21106 0.44844 0.523732
22 1 0.224387 0.453208 0.483767
23 1 0.237914 0.496071 0.489487
24 1 0.248091 0.544408 0.633546
25 1 0.253628 0.515805 0.449032
26 1 0.263823 0.574345 0.411435
27 1 0.272786 0.522149 0.517318
28 1 0.283433 0.503257 0.459547
29 1 0.292901 0.457828 0.527005
30 1 0.303073 0.51989 0.466361
31 1 0.312313 0.469269 0.505223
32 1 0.321255 0.619496 0.476944
33 1 0.32738 0.448748 0.570795
34 1 0.33699 0.538844 0.521752
35 1 0.346714 0.467372 0.486174
36 1 0.356138 0.556145 0.454804
37 1 0.365249 0.452967 0.486502
38 1 0.375329 0.552434 0.419843
39 1 0.388188 0.5091 0.474248
40 1 0.399876 0.41232 0.565704
41 1 0.409742 0.513614 0.517664
42 1 0.420493 0.516294 0.433083
43 1 0.42695 0.5729 0.614644
44 1 0.435604 0.446918 0.537697
45 1 0.444824 0.553304 0.471523
46 1 0.454794 0.502799 0.471125
47 1 0.463219 0.385073 0.54604
48 1 0.473171 0.523578 0.53059
49 1 0.484838 0.499684 0.453055
50 1 0.497464 0.546224 0.445772
51 1 0.50561 0.575469 0.602433
52 1 0.510073 0.467759 0.456962
53 1 0.522105 0.525947 0.511341
54 1 0.53273 0.449096 0.56432
55 1 0.541379 0.472686 0.410301
56 1 0.552793 0.523107 0.505518
57 1 0.562666 0.412477 0.56167
58 1 0.572027 0.529031 0.509774
59 1 0.579894 0.374984 0.478511
60 1 0.590231 0.365091 0.559171
61 1 0.598246 0.549629 0.550443
62 1 0.609844 0.522311 0.467273
63 1 0.620745 0.408594 0.527588
64 1 0.629838 0.518772 0.426886
65 1 0.641132 0.461506 0.461252
66 1 0.652808 0.511773 0.476876
67 1 0.660347 0.386334 0.553202
68 1 0.669616 0.472238 0.542609
69 1 0.676201 0.391489 0.408975
70 1 0.684378 0.489619 0.544095
71 1 0.696118 0.46612 0.555435
72 1 0.705495 0.611256 0.487813
73 1 0.714281 0.471074 0.55329
74 1 0.726968 0.459355 0.450683
75 1 0.740073 0.565329 0.510325
76 1 0.752711 0.584072 0.568206
77 1 0.762354 0.432742 0.552217
78 1 0.769756 0.541029 0.456394
79 1 0.776251 0.507996 0.612867
80 1 0.785411 0.572116 0.47837
81 1 0.795304 0.477968 0.390058
82 1 0.806678 0.467706 0.480468
83 1 0.815801 0.60099 0.507857
84 1 0.825841 0.503056 0.536852
85 1 0.836873 0.500016 0.472617
86 1 0.845533 0.379084 0.405002
87 1 0.85474 0.425198 0.518298
88 1 0.863422 0.547804 0.559259
89 1 0.872559 0.453235 0.471227
90 1 0.883751 0.566557 0.487901
91 1 0.895149 0.609818 0.557235
92 1 0.904005 0.465276 0.589306
93 1 0.910631 0.486907 0.425389
94 1 0.922624 0.413808 0.4631
95 1 0.934949 0.474731 0.453919
96 1 0.947162 0.437272 0.474535
97 1 0.954674 0.589929 0.521692
98 1 0.965883 0.568233 0.487334
99 1 0.978338 0.543583 0.486641
100 1 0.991313 0.550024 0.526477
ITEM: TIMESTEP
300
ITEM: NUMBER OF ATOMS
100
ITEM: BOX BOUNDS pp pp pp
0.0000000000000000e+00 1.0003000000000000e+02
0.0000000000000000e+00 5.0000000000000000e+00
0.0000000000000000e+00 5.0000000000000000e+00
ITEM: ATOMS id type xs ys zs
1 1 0.00955864 0.439215 0.42479
2 1 0.0209921 0.46633 0.486712
3 1 0.0320453 0.510189 0.570103
4 1 0.0439134 0.44092 0.64323
5 1 0.0562913 0.505827 0.630316
6 1 0.0668953 0.420593 0.547972
7 1 0.0769693 0.535409 0.51535
8 1 0.0895484 0.571806 0.507929
9 1 0.0996929 0.567745 0.670384
10 1 0.108839 0.548984 0.490833
11 1 0.11747 0.358035 0.525345
12 1 0.12464 0.552853 0.439696
13 1 0.136948 0.614753 0.397136
14 1 0.145604 0.515912 0.257638
15 1 0.155307 0.600688 0.372143
16 1 0.166412 0.603412 0.45879
17 1 0.174453 0.454941 0.481356
18 1 0.185242 0.441266 0.490411
19 1 0.197424 0.459966 0.455853
20 1 0.205791 0.621719 0.507038
21 1 0.214579 0.463134 0.503586
22 1 0.226413 0.452814 0.502396
23 1 0.236835 0.491626 0.533827
24 1 0.245123 0.525238 0.648948
25 1 0.25124 0.547007 0.423591
26 1 0.263795 0.575433 0.353761
27 1 0.272281 0.572576 0.52387
28 1 0.282879 0.470011 0.464096
29 1 0.29388 0.426664 0.544073
30 1 0.304551 0.546765 0.444202
31 1 0.315707 0.446532 0.506815
32 1 0.322496 0.630366 0.488567
33 1 0.32418 0.452165 0.587123
34 1 0.334794 0.571858 0.536757
35 1 0.345868 0.434782 0.470086
36 1 0.356468 0.592598 0.433699
37 1 0.366931 0.465991 0.461061
38 1 0.377763 0.517729 0.439359
39 1 0.387728 0.463723 0.492408
40 1 0.398482 0.490734 0.525914
41 1 0.409837 0.465507 0.530689
42 1 0.421023 0.545434 0.434801
43 1 0.425935 0.582111 0.627282
44 1 0.434585 0.448822 0.5688
45 1 0.442814 0.552083 0.397039
46 1 0.454272 0.510097 0.537892
47 1 0.465265 0.375391 0.527532
48 1 0.475125 0.459848 0.518721
49 1 0.484415 0.566838 0.460855
50 1 0.496575 0.544029 0.474016
51 1 0.504496 0.59383 0.599111
52 1 0.509527 0.472329 0.428309
53 1 0.520082 0.478302 0.559752
54 1 0.531279 0.476844 0.509405
55 1 0.54145 0.481409 0.456001
56 1 0.553143 0.473531 0.458547
57 1 0.562229 0.425618 0.60067
58 1 0.571064 0.53456 0.487981
59 1 0.579161 0.334838 0.506689
60 1 0.59115 0.359974 0.552959
61 1 0.598743 0.517915 0.542663
62 1 0.609259 0.516818 0.522069
63 1 0.619307 0.434447 0.483114
64 1 0.62955 0.455081 0.443293
65 1 0.640356 0.53938 0.413046
66 1 0.652364 0.482439 0.468664
67 1 0.659795 0.338749 0.592768
68 1 0.671184 0.474618 0.570275
69 1 0.676824 0.370258 0.368758
70 1 0.682934 0.437997 0.547873
71 1 0.694217 0.524095 0.562538
72 1 0.706279 0.583703 0.507618
73 1 0.717076 0.484891 0.510097
74 1 0.728683 0.513313 0.514391
75 1 0.739741 0.533476 0.507929
76 1 0.750486 0.570257 0.55766
77 1 0.761755 0.438703 0.561655
78 1 0.770904 0.548654 0.455512
79 1 0.777349 0.534587 0.632125
80 1 0.784137 0.553342 0.460018
81 1 0.795026 0.486879 0.414397
82 1 0.806961 0.48845 0.420546
83 1 0.815245 0.575681 0.536969
84 1 0.826897 0.588829 0.548962
85 1 0.8356 0.43711 0.450931
86 1 0.845672 0.341746 0.373517
87 1 0.855937 0.407196 0.508877
88 1 0.865279 0.55039 0.597429
89 1 0.872969 0.495967 0.458623
90 1 0.884042 0.555966 0.500344
91 1 0.894861 0.606709 0.57173
92 1 0.904798 0.490198 0.599047
93 1 0.911983 0.442064 0.429664
94 1 0.924102 0.474994 0.42224
95 1 0.935223 0.383101 0.460067
96 1 0.94683 0.472239 0.470505
97 1 0.957273 0.564502 0.496549
98 1 0.969342 0.623731 0.518789
99 1 0.980352 0.550487 0.480863
100 1 0.991205 0.561334 0.52367
ITEM: TIMESTEP
400
ITEM: NUMBER OF ATOMS
100
ITEM: BOX BOUNDS pp pp pp
0.0000000000000000e+00 1.0003000000000000e+02
0.0000000000000000e+00 5.0000000000000000e+00
0.0000000000000000e+00 5.0000000000000000e+00
ITEM: ATOMS id type xs ys zs
1 1 0.0102548 0.4356 0.419987
2 1 0.0215806 0.469599 0.525107
3 1 0.0333234 0.488151 0.572897
4 1 0.0447155 0.415443 0.619158
5 1 0.0549034 0.543638 0.609397
6 1 0.064727 0.427635 0.557676
7 1 0.0752022 0.536725 0.56967
8 1 0.0874731 0.550693 0.546553
9 1 0.0983266 0.593115 0.624569
10 1 0.10871 0.530189 0.535612
11 1 0.117747 0.382118 0.500754
12 1 0.125493 0.542419 0.446836
13 1 0.135728 0.608267 0.361296
14 1 0.145453 0.542623 0.24022
15 1 0.155621 0.595229 0.373804
16 1 0.167736 0.630173 0.419872
17 1 0.173095 0.418523 0.464222
18 1 0.185163 0.467233 0.520378
19 1 0.197689 0.470004 0.43467
20 1 0.205121 0.625849 0.517859
21 1 0.213992 0.459558 0.486983
22 1 0.225718 0.426404 0.497162
23 1 0.237769 0.493795 0.519978
24 1 0.248603 0.538076 0.661701
25 1 0.250856 0.563361 0.444998
26 1 0.261615 0.582353 0.367775
27 1 0.271694 0.576713 0.483318
28 1 0.283301 0.467311 0.491443
29 1 0.2951 0.437024 0.51781
30 1 0.305545 0.522776 0.462191
31 1 0.317612 0.467689 0.498939
32 1 0.32328 0.650531 0.478181
33 1 0.323936 0.446586 0.605066
34 1 0.333517 0.521066 0.540154
35 1 0.344262 0.497354 0.472262
36 1 0.354301 0.579593 0.425344
37 1 0.3649 0.457462 0.450416
38 1 0.377401 0.525929 0.423223
39 1 0.388555 0.428221 0.50593
40 1 0.400206 0.534938 0.51974
41 1 0.412009 0.427353 0.540219
42 1 0.420533 0.567662 0.417777
43 1 0.425557 0.59036 0.650383
44 1 0.43478 0.462862 0.572609
45 1 0.443396 0.529725 0.415607
46 1 0.452903 0.491919 0.525913
47 1 0.462955 0.375625 0.528826
48 1 0.475495 0.431133 0.519453
49 1 0.484274 0.621532 0.454062
50 1 0.497071 0.534362 0.469569
51 1 0.506144 0.611525 0.618179
52 1 0.508078 0.470346 0.418643
53 1 0.515829 0.461329 0.585881
54 1 0.528787 0.485447 0.499173
55 1 0.542329 0.485518 0.445292
56 1 0.555578 0.452786 0.440208
57 1 0.563072 0.425631 0.624323
58 1 0.571072 0.515087 0.481203
59 1 0.577538 0.327517 0.516708
60 1 0.589367 0.324799 0.55613
61 1 0.595718 0.529631 0.554191
62 1 0.608957 0.561322 0.558186
63 1 0.619162 0.390092 0.45868
64 1 0.632445 0.425346 0.429005
65 1 0.642741 0.569456 0.39151
66 1 0.652519 0.465591 0.471688
67 1 0.66006 0.351131 0.606428
68 1 0.671568 0.425697 0.559853
69 1 0.675761 0.367511 0.353261
70 1 0.683065 0.429131 0.560186
71 1 0.693842 0.540944 0.563875
72 1 0.705753 0.565481 0.526811
73 1 0.717558 0.492519 0.470475
74 1 0.728711 0.566066 0.579881
75 1 0.739931 0.494442 0.488061
76 1 0.750506 0.559125 0.56106
77 1 0.761317 0.466042 0.551351
78 1 0.771383 0.532466 0.452954
79 1 0.777442 0.557802 0.674113
80 1 0.782266 0.556555 0.450506
81 1 0.794627 0.482974 0.401975
82 1 0.807673 0.487689 0.387018
83 1 0.815791 0.577943 0.558622
84 1 0.828711 0.608547 0.54622
85 1 0.835511 0.419243 0.439276
86 1 0.846263 0.340082 0.391937
87 1 0.8565 0.402512 0.493884
88 1 0.864144 0.533679 0.615272
89 1 0.872323 0.502762 0.437357
90 1 0.884199 0.559071 0.499467
91 1 0.895435 0.627889 0.587437
92 1 0.906666 0.498968 0.623504
93 1 0.914065 0.414471 0.414314
94 1 0.925671 0.472497 0.410463
95 1 0.935388 0.371067 0.453651
96 1 0.946363 0.488304 0.469689
97 1 0.958665 0.536732 0.475845
98 1 0.970254 0.659225 0.536362
99 1 0.981251 0.560384 0.479213
100 1 0.9928 0.567124 0.523111
ITEM: TIMESTEP
500
ITEM: NUMBER OF ATOMS
100
ITEM: BOX BOUNDS pp pp pp
0.0000000000000000e+00 1.0003000000000000e+02
0.0000000000000000e+00 5.0000000000000000e+00
0.0000000000000000e+00 5.0000000000000000e+00
ITEM: ATOMS id type xs ys zs
1 1 0.0122535 0.437287 0.42666
2 1 0.0223474 0.474637 0.558945
3 1 0.0336174 0.456236 0.56965
4 1 0.0447083 0.400587 0.593172
5 1 0.0528551 0.575001 0.586744
6 1 0.0631226 0.45498 0.561537
7 1 0.074152 0.514222 0.627466
8 1 0.0859129 0.536493 0.583403
9 1 0.0968073 0.612322 0.59022
10 1 0.108315 0.52542 0.557352
11 1 0.11726 0.376659 0.488167
12 1 0.126445 0.543921 0.472358
13 1 0.135151 0.598945 0.299679
14 1 0.146843 0.587066 0.253792
15 1 0.156211 0.58761 0.365643
16 1 0.167334 0.61063 0.372164
17 1 0.174532 0.442245 0.464571
18 1 0.185358 0.465813 0.514064
19 1 0.195671 0.492101 0.441626
20 1 0.204478 0.608618 0.519128
21 1 0.214843 0.46027 0.480426
22 1 0.226575 0.431825 0.496929
23 1 0.238306 0.486758 0.540569
24 1 0.248252 0.530097 0.678276
25 1 0.249412 0.582164 0.424682
26 1 0.262243 0.594313 0.411326
27 1 0.273908 0.525692 0.376787
28 1 0.282929 0.507635 0.575472
29 1 0.294385 0.463476 0.461224
30 1 0.305626 0.489732 0.486112
31 1 0.317689 0.449682 0.49585
32 1 0.324576 0.654466 0.497576
33 1 0.32027 0.469922 0.616478
34 1 0.332083 0.501894 0.539428
35 1 0.344595 0.529052 0.45829
36 1 0.355766 0.57929 0.409902
37 1 0.366093 0.483857 0.429195
38 1 0.377747 0.465589 0.454029
39 1 0.389237 0.484365 0.488029
40 1 0.400567 0.498027 0.514506
41 1 0.411704 0.451394 0.5272
42 1 0.419215 0.565756 0.431854
43 1 0.424818 0.595721 0.655647
44 1 0.434909 0.469945 0.579466
45 1 0.442878 0.517121 0.417096
46 1 0.453027 0.466566 0.526849
47 1 0.464553 0.400413 0.536649
48 1 0.475447 0.476039 0.478593
49 1 0.485096 0.544746 0.490834
50 1 0.495096 0.578381 0.491336
51 1 0.505523 0.611158 0.603527
52 1 0.508302 0.46725 0.422589
53 1 0.518436 0.461409 0.542929
54 1 0.529872 0.47933 0.498608
55 1 0.540368 0.469644 0.475847
56 1 0.551522 0.445888 0.47126
57 1 0.561523 0.431323 0.60756
58 1 0.57113 0.508035 0.469024
59 1 0.576494 0.30994 0.528116
60 1 0.588954 0.344948 0.55394
61 1 0.59821 0.50599 0.569433
62 1 0.609314 0.472458 0.518982
63 1 0.620389 0.48423 0.485191
64 1 0.630767 0.437734 0.421809
65 1 0.64107 0.539983 0.38754
66 1 0.652108 0.453351 0.46767
67 1 0.660482 0.35162 0.631681
68 1 0.671405 0.402316 0.572127
69 1 0.676695 0.36083 0.35467
70 1 0.684187 0.437035 0.524989
71 1 0.694284 0.540336 0.557452
72 1 0.705793 0.521314 0.537819
73 1 0.717399 0.54185 0.488477
74 1 0.727618 0.570663 0.579024
75 1 0.738051 0.486611 0.496209
76 1 0.749579 0.547292 0.559475
77 1 0.761232 0.479617 0.549366
78 1 0.772554 0.525475 0.451835
79 1 0.778072 0.585188 0.6701
80 1 0.78479 0.515385 0.462866
81 1 0.795499 0.515906 0.395323
82 1 0.805769 0.527121 0.44239
83 1 0.816475 0.549365 0.495751
84 1 0.827553 0.572065 0.527215
85 1 0.83513 0.437195 0.433941
86 1 0.845423 0.351229 0.438046
87 1 0.856995 0.389494 0.458591
88 1 0.864276 0.50675 0.608937
89 1 0.8742 0.545506 0.471689
90 1 0.885721 0.569268 0.510356
91 1 0.895823 0.570789 0.582003
92 1 0.906071 0.53315 0.565492
93 1 0.914781 0.418124 0.467372
94 1 0.926084 0.463408 0.399061
95 1 0.937743 0.385818 0.450924
96 1 0.948791 0.499414 0.469814
97 1 0.959169 0.538332 0.477862
98 1 0.969048 0.619349 0.513736
99 1 0.98077 0.600129 0.501649
100 1 0.99333 0.5644 0.512782
ITEM: TIMESTEP
600
ITEM: NUMBER OF ATOMS
100
ITEM: BOX BOUNDS pp pp pp
0.0000000000000000e+00 1.0003000000000000e+02
0.0000000000000000e+00 5.0000000000000000e+00
0.0000000000000000e+00 5.0000000000000000e+00
ITEM: ATOMS id type xs ys zs
1 1 0.0133312 0.437371 0.426849
2 1 0.0216924 0.483504 0.594086
3 1 0.0339056 0.434516 0.565851
4 1 0.0465815 0.378148 0.573237
5 1 0.0508478 0.59958 0.567383
6 1 0.0615044 0.476997 0.577178
7 1 0.0729096 0.497769 0.663948
8 1 0.0853706 0.52737 0.620315
9 1 0.0963288 0.625675 0.544688
10 1 0.107616 0.502753 0.590969
11 1 0.117152 0.413091 0.479625
12 1 0.126809 0.530543 0.463778
13 1 0.133259 0.589313 0.279041
14 1 0.1457 0.618378 0.23118
15 1 0.156455 0.582944 0.376124
16 1 0.16889 0.624368 0.326799
17 1 0.173401 0.430115 0.464092
18 1 0.185263 0.464286 0.53663
19 1 0.196009 0.497526 0.413635
20 1 0.206429 0.591525 0.535229
21 1 0.216583 0.478579 0.478131
22 1 0.227088 0.455853 0.495784
23 1 0.237772 0.466153 0.565264
24 1 0.247574 0.527786 0.656872
25 1 0.251908 0.597033 0.436284
26 1 0.263986 0.570908 0.42881
27 1 0.27411 0.512883 0.392761
28 1 0.281906 0.533314 0.534741
29 1 0.293352 0.498063 0.439799
30 1 0.304595 0.456614 0.503116
31 1 0.317815 0.455878 0.497251
32 1 0.327068 0.641264 0.509086
33 1 0.319122 0.484365 0.606591
34 1 0.33017 0.500722 0.537463
35 1 0.342274 0.552227 0.463773
36 1 0.354442 0.58306 0.399916
37 1 0.366865 0.502421 0.406341
38 1 0.377945 0.40099 0.482533
39 1 0.388377 0.53783 0.46838
40 1 0.400465 0.482029 0.512225
41 1 0.413077 0.42882 0.546667
42 1 0.420642 0.595759 0.435528
43 1 0.423934 0.593835 0.640825
44 1 0.434672 0.480594 0.59025
45 1 0.441763 0.510024 0.411418
46 1 0.452087 0.446885 0.530516
47 1 0.46349 0.388401 0.565119
48 1 0.472992 0.486036 0.425772
49 1 0.48534 0.513094 0.518684
50 1 0.497034 0.629829 0.471299
51 1 0.508383 0.612768 0.626976
52 1 0.506841 0.469454 0.426371
53 1 0.517841 0.454391 0.519427
54 1 0.529123 0.491093 0.496404
55 1 0.539805 0.455853 0.494103
56 1 0.551159 0.425315 0.500629
57 1 0.561842 0.443794 0.587686
58 1 0.571092 0.497436 0.463046
59 1 0.576846 0.297779 0.542062
60 1 0.588093 0.372288 0.552078
61 1 0.599148 0.467081 0.579503
62 1 0.610489 0.399613 0.485665
63 1 0.619846 0.578693 0.520487
64 1 0.629703 0.430789 0.405419
65 1 0.641887 0.506555 0.39174
66 1 0.651579 0.43556 0.482362
67 1 0.660187 0.371342 0.622776
68 1 0.671182 0.37233 0.578427
69 1 0.676619 0.354142 0.342433
70 1 0.683908 0.43384 0.508874
71 1 0.69455 0.563056 0.558687
72 1 0.706433 0.458428 0.551558
73 1 0.717166 0.599589 0.489369
74 1 0.727452 0.57968 0.589778
75 1 0.737927 0.499674 0.521938
76 1 0.749806 0.478547 0.536768
77 1 0.760564 0.546506 0.527616
78 1 0.772091 0.503599 0.486904
79 1 0.778223 0.609694 0.6622
80 1 0.784379 0.479443 0.479372
81 1 0.79354 0.535862 0.348086
82 1 0.804039 0.566759 0.506795
83 1 0.81785 0.518133 0.440808
84 1 0.82827 0.597152 0.548737
85 1 0.834345 0.430514 0.407002
86 1 0.846301 0.326491 0.458834
87 1 0.858716 0.377906 0.439497
88 1 0.864384 0.48799 0.613694
89 1 0.872824 0.576357 0.482916
90 1 0.885133 0.589978 0.489454
91 1 0.896436 0.535106 0.62846
92 1 0.90892 0.572353 0.53265
93 1 0.917473 0.393661 0.486867
94 1 0.927328 0.450513 0.390364
95 1 0.937654 0.38682 0.441181
96 1 0.947687 0.509695 0.470652
97 1 0.959885 0.518188 0.466161
98 1 0.971 0.627398 0.512998
99 1 0.982462 0.630633 0.519003
100 1 0.993689 0.563133 0.503353
ITEM: TIMESTEP
700
ITEM: NUMBER OF ATOMS
100
ITEM: BOX BOUNDS pp pp pp
0.0000000000000000e+00 1.0003000000000000e+02
0.0000000000000000e+00 5.0000000000000000e+00
0.0000000000000000e+00 5.0000000000000000e+00
ITEM: ATOMS id type xs ys zs
1 1 0.0154412 0.442962 0.446832
2 1 0.0235447 0.474566 0.605971
3 1 0.0340571 0.408296 0.572508
4 1 0.0454519 0.373449 0.547793
5 1 0.0503785 0.593608 0.541782
6 1 0.0615615 0.548885 0.632328
7 1 0.0728815 0.469612 0.647016
8 1 0.0842414 0.547439 0.657061
9 1 0.0941422 0.569314 0.546198
10 1 0.105085 0.506931 0.585646
11 1 0.115338 0.448737 0.489152
12 1 0.127974 0.524573 0.448677
13 1 0.134295 0.58265 0.241597
14 1 0.145231 0.633503 0.29901
15 1 0.15647 0.611114 0.293781
16 1 0.167276 0.57834 0.32306
17 1 0.174075 0.471633 0.458115
18 1 0.185155 0.455342 0.504557
19 1 0.195286 0.50916 0.438484
20 1 0.205044 0.588972 0.540975
21 1 0.21462 0.486769 0.458591
22 1 0.227354 0.458734 0.46553
23 1 0.240018 0.431568 0.59922
24 1 0.250854 0.549117 0.656285
25 1 0.252004 0.629179 0.4556
26 1 0.264332 0.545126 0.466695
27 1 0.275835 0.474174 0.359736
28 1 0.283772 0.564654 0.519032
29 1 0.295548 0.528698 0.440441
30 1 0.305559 0.426804 0.500404
31 1 0.315551 0.55225 0.508603
32 1 0.327462 0.578165 0.490848
33 1 0.318882 0.461109 0.606406
34 1 0.33013 0.518843 0.519573
35 1 0.341943 0.573225 0.464093
36 1 0.353422 0.533763 0.424764
37 1 0.365677 0.508679 0.418797
38 1 0.37681 0.438097 0.468126
39 1 0.388722 0.512942 0.47324
40 1 0.399949 0.477055 0.502823
41 1 0.411509 0.45617 0.532905
42 1 0.420089 0.596035 0.426741
43 1 0.423479 0.589478 0.661051
44 1 0.434212 0.491224 0.603891
45 1 0.441336 0.497358 0.412681
46 1 0.452116 0.426631 0.52964
47 1 0.463547 0.413148 0.543884
48 1 0.474215 0.480974 0.46357
49 1 0.486323 0.535391 0.474061
50 1 0.496561 0.596166 0.540433
51 1 0.507666 0.62619 0.584633
52 1 0.502498 0.47196 0.417067
53 1 0.514212 0.445815 0.517446
54 1 0.526472 0.523248 0.491553
55 1 0.539558 0.440046 0.505491
56 1 0.55321 0.390066 0.509441
57 1 0.56432 0.446032 0.602905
58 1 0.572757 0.490669 0.44679
59 1 0.578062 0.299312 0.558219
60 1 0.588687 0.410707 0.554333
61 1 0.600487 0.378747 0.559948
62 1 0.611797 0.388787 0.485005
63 1 0.618908 0.58256 0.510055
64 1 0.628556 0.500217 0.424585
65 1 0.639233 0.45909 0.388718
66 1 0.650049 0.420172 0.478749
67 1 0.660868 0.380117 0.641875
68 1 0.67228 0.342007 0.572533
69 1 0.676544 0.347486 0.353806
70 1 0.685324 0.45617 0.48615
71 1 0.696317 0.521943 0.55268
72 1 0.706099 0.473042 0.549667
73 1 0.714587 0.616847 0.511167
74 1 0.725675 0.596831 0.605687
75 1 0.737438 0.4974 0.535782
76 1 0.750569 0.436625 0.519998
77 1 0.760222 0.583321 0.510899
78 1 0.771773 0.486429 0.506685
79 1 0.779616 0.619521 0.640821
80 1 0.785013 0.472681 0.499597
81 1 0.79417 0.56133 0.392844
82 1 0.805068 0.561278 0.450994
83 1 0.816286 0.545256 0.470436
84 1 0.826242 0.552671 0.493065
85 1 0.836031 0.429559 0.440878
86 1 0.846748 0.356814 0.454007
87 1 0.857455 0.356649 0.437
88 1 0.8647 0.470794 0.596168
89 1 0.874565 0.595313 0.509147
90 1 0.885895 0.584619 0.53045
91 1 0.897275 0.545066 0.564345
92 1 0.908552 0.552951 0.531162
93 1 0.91737 0.404337 0.524772
94 1 0.927175 0.449946 0.368432
95 1 0.938872 0.382194 0.436589
96 1 0.948387 0.51416 0.470945
97 1 0.960694 0.507483 0.458325
98 1 0.972007 0.632298 0.510773
99 1 0.983939 0.662275 0.534976
100 1 0.995016 0.560352 0.4942
ITEM: TIMESTEP
800
ITEM: NUMBER OF ATOMS
100
ITEM: BOX BOUNDS pp pp pp
0.0000000000000000e+00 1.0003000000000000e+02
0.0000000000000000e+00 5.0000000000000000e+00
0.0000000000000000e+00 5.0000000000000000e+00
ITEM: ATOMS id type xs ys zs
1 1 0.016492 0.445605 0.445392
2 1 0.0238742 0.486847 0.651149
3 1 0.0346541 0.369669 0.575468
4 1 0.046724 0.360246 0.515696
5 1 0.0515598 0.586835 0.53434
6 1 0.0615602 0.604432 0.667107
7 1 0.0711905 0.46604 0.637695
8 1 0.0822613 0.564382 0.700579
9 1 0.0916984 0.506695 0.540677
10 1 0.104471 0.495848 0.558101
11 1 0.11594 0.54554 0.519446
12 1 0.126326 0.487218 0.397121
13 1 0.133209 0.566609 0.241308
14 1 0.143073 0.655984 0.349189
15 1 0.154359 0.646475 0.213562
16 1 0.167212 0.56876 0.268971
17 1 0.172837 0.468826 0.488003
18 1 0.186106 0.425419 0.517112
19 1 0.196748 0.521553 0.425295
20 1 0.207097 0.58561 0.549155
21 1 0.217497 0.498949 0.458783
22 1 0.228857 0.456223 0.511842
23 1 0.239838 0.465543 0.582586
24 1 0.249279 0.515292 0.645968
25 1 0.255838 0.625555 0.467953
26 1 0.264719 0.536903 0.449503
27 1 0.275276 0.46586 0.390552
28 1 0.285514 0.585491 0.472514
29 1 0.297467 0.565036 0.450066
30 1 0.307359 0.426695 0.497986
31 1 0.314828 0.610309 0.509515
32 1 0.326154 0.539507 0.458843
33 1 0.319589 0.436333 0.607676
34 1 0.330269 0.534679 0.508009
35 1 0.34163 0.583875 0.463775
36 1 0.351965 0.463706 0.463867
37 1 0.364568 0.502725 0.453204
38 1 0.375855 0.552727 0.424413
39 1 0.38648 0.428736 0.491219
40 1 0.39865 0.483094 0.484401
41 1 0.410692 0.487952 0.521715
42 1 0.419491 0.59838 0.420622
43 1 0.423014 0.579847 0.678243
44 1 0.43346 0.508052 0.611837
45 1 0.44132 0.476748 0.438457
46 1 0.452484 0.394113 0.517815
47 1 0.463714 0.466264 0.498165
48 1 0.475709 0.467814 0.524812
49 1 0.486679 0.557815 0.425732
50 1 0.495078 0.552405 0.613834
51 1 0.506975 0.633705 0.53728
52 1 0.502111 0.474673 0.438691
53 1 0.514902 0.490756 0.470826
54 1 0.526469 0.449954 0.50904
55 1 0.53852 0.448658 0.512682
56 1 0.550161 0.414102 0.552938
57 1 0.562363 0.429116 0.570451
58 1 0.5742 0.471728 0.444411
59 1 0.579667 0.310203 0.571794
60 1 0.590334 0.451963 0.556053
61 1 0.60065 0.290088 0.537078
62 1 0.611718 0.392352 0.493337
63 1 0.616262 0.587301 0.513722
64 1 0.628326 0.546371 0.428683
65 1 0.639468 0.40651 0.390997
66 1 0.649659 0.395848 0.511007
67 1 0.661048 0.398126 0.601702
68 1 0.671554 0.315596 0.573131
69 1 0.675945 0.334026 0.36559
70 1 0.684785 0.466436 0.451637
71 1 0.696299 0.513157 0.562668
72 1 0.708371 0.445843 0.555361
73 1 0.715849 0.656582 0.547001
74 1 0.727396 0.569432 0.565004
75 1 0.737877 0.512855 0.584499
76 1 0.747756 0.471 0.502706
77 1 0.758678 0.55464 0.487539
78 1 0.77039 0.507965 0.555098
79 1 0.77961 0.624435 0.610504
80 1 0.784653 0.427036 0.521706
81 1 0.792768 0.619687 0.423288
82 1 0.804227 0.553755 0.372171
83 1 0.814149 0.587479 0.539235
84 1 0.825602 0.541208 0.43486
85 1 0.837 0.412797 0.4541
86 1 0.848315 0.351217 0.463899
87 1 0.859459 0.316081 0.417382
88 1 0.865645 0.469669 0.550435
89 1 0.874978 0.619268 0.574668
90 1 0.886545 0.58113 0.583576
91 1 0.897903 0.549166 0.496305
92 1 0.909553 0.547668 0.519588
93 1 0.918885 0.418242 0.549272
94 1 0.927907 0.398339 0.386116
95 1 0.939957 0.44036 0.410788
96 1 0.950871 0.489785 0.464546
97 1 0.962086 0.537693 0.469681
98 1 0.973014 0.60636 0.498412
99 1 0.983621 0.673649 0.540829
100 1 0.994853 0.570771 0.48844
ITEM: TIMESTEP
900
ITEM: NUMBER OF ATOMS
100
ITEM: BOX BOUNDS pp pp pp
0.0000000000000000e+00 1.0003000000000000e+02
0.0000000000000000e+00 5.0000000000000000e+00
0.0000000000000000e+00 5.0000000000000000e+00
ITEM: ATOMS id type xs ys zs
1 1 0.0182116 0.454881 0.469439
2 1 0.025795 0.465573 0.651088
3 1 0.035532 0.357779 0.581436