ITEM: TIMESTEP
0
ITEM: NUMBER OF ATOMS
100
ITEM: BOX BOUNDS pp pp pp
0.0000000000000000e+00 1.0003000000000000e+02
0.0000000000000000e+00 5.0000000000000000e+00
0.0000000000000000e+00 5.0000000000000000e+00
ITEM: ATOMS id type xs ys zs
1 1 0.019994 0.5 0.5
2 1 0.0296911 0.5 0.5
3 1 0.0393882 0.5 0.5
4 1 0.0490853 0.5 0.5
5 1 0.0587824 0.5 0.5
6 1 0.0684795 0.5 0.5
7 1 0.0781765 0.5 0.5
8 1 0.0878736 0.5 0.5
9 1 0.0975707 0.5 0.5
10 1 0.107268 0.5 0.5
11 1 0.116965 0.5 0.5
12 1 0.126662 0.5 0.5
13 1 0.136359 0.5 0.5
14 1 0.146056 0.5 0.5
15 1 0.155753 0.5 0.5
16 1 0.16545 0.5 0.5
17 1 0.175147 0.5 0.5
18 1 0.184845 0.5 0.5
19 1 0.194542 0.5 0.5
20 1 0.204239 0.5 0.5
21 1 0.213936 0.5 0.5
22 1 0.223633 0.5 0.5
23 1 0.23333 0.5 0.5
24 1 0.243027 0.5 0.5
25 1 0.252724 0.5 0.5
26 1 0.262421 0.5 0.5
27 1 0.272118 0.5 0.5
28 1 0.281815 0.5 0.5
29 1 0.291513 0.5 0.5
30 1 0.30121 0.5 0.5
31 1 0.310907 0.5 0.5
32 1 0.320604 0.5 0.5
33 1 0.330301 0.5 0.5
34 1 0.339998 0.5 0.5
35 1 0.349695 0.5 0.5
36 1 0.359392 0.5 0.5
37 1 0.369089 0.5 0.5
38 1 0.378786 0.5 0.5
39 1 0.388483 0.5 0.5
40 1 0.398181 0.5 0.5
41 1 0.407878 0.5 0.5
42 1 0.417575 0.5 0.5
43 1 0.427272 0.5 0.5
44 1 0.436969 0.5 0.5
45 1 0.446666 0.5 0.5
46 1 0.456363 0.5 0.5
47 1 0.46606 0.5 0.5
48 1 0.475757 0.5 0.5
49 1 0.485454 0.5 0.5
50 1 0.495151 0.5 0.5
51 1 0.504849 0.5 0.5
52 1 0.514546 0.5 0.5
53 1 0.524243 0.5 0.5
54 1 0.53394 0.5 0.5
55 1 0.543637 0.5 0.5
56 1 0.553334 0.5 0.5
57 1 0.563031 0.5 0.5
58 1 0.572728 0.5 0.5
59 1 0.582425 0.5 0.5
60 1 0.592122 0.5 0.5
61 1 0.601819 0.5 0.5
62 1 0.611517 0.5 0.5
63 1 0.621214 0.5 0.5
64 1 0.630911 0.5 0.5
65 1 0.640608 0.5 0.5
66 1 0.650305 0.5 0.5
67 1 0.660002 0.5 0.5
68 1 0.669699 0.5 0.5
69 1 0.679396 0.5 0.5
70 1 0.689093 0.5 0.5
71 1 0.69879 0.5 0.5
72 1 0.708487 0.5 0.5
73 1 0.718185 0.5 0.5
74 1 0.727882 0.5 0.5
75 1 0.737579 0.5 0.5
76 1 0.747276 0.5 0.5
77 1 0.756973 0.5 0.5
78 1 0.76667 0.5 0.5
79 1 0.776367 0.5 0.5
80 1 0.786064 0.5 0.5
81 1 0.795761 0.5 0.5
82 1 0.805458 0.5 0.5
83 1 0.815155 0.5 0.5
84 1 0.824853 0.5 0.5
85 1 0.83455 0.5 0.5
86 1 0.844247 0.5 0.5
87 1 0.853944 0.5 0.5
88 1 0.863641 0.5 0.5
89 1 0.873338 0.5 0.5
90 1 0.883035 0.5 0.5
91 1 0.892732 0.5 0.5
92 1 0.902429 0.5 0.5
93 1 0.912126 0.5 0.5
94 1 0.921823 0.5 0.5
95 1 0.931521 0.5 0.5
96 1 0.941218 0.5 0.5
97 1 0.950915 0.5 0.5
98 1 0.960612 0.5 0.5
99 1 0.970309 0.5 0.5
100 1 0.980006 0.5 0.5
ITEM: TIMESTEP
100
ITEM: NUMBER OF ATOMS
100
ITEM: BOX BOUNDS pp pp pp
0.0000000000000000e+00 1.0003000000000000e+02
0.0000000000000000e+00 5.0000000000000000e+00
0.0000000000000000e+00 5.0000000000000000e+00
ITEM: ATOMS id type xs ys zs
1 1 0.0129109 0.455527 0.452834
2 1 0.0251812 0.471019 0.428267
3 1 0.035902 0.495026 0.584743
4 1 0.0482182 0.532501 0.61738
5 1 0.0581757 0.425179 0.598233
6 1 0.0686483 0.488766 0.551819
7 1 0.0787979 0.485513 0.459171
8 1 0.088594 0.598939 0.509682
9 1 0.0985734 0.495624 0.650298
10 1 0.107499 0.562794 0.447873
11 1 0.11703 0.403579 0.555701
12 1 0.125576 0.527748 0.40375
13 1 0.137311 0.60344 0.494258
14 1 0.146468 0.474227 0.325585
15 1 0.1568 0.594043 0.384207
16 1 0.165468 0.534859 0.503599
17 1 0.176199 0.529106 0.50439
18 1 0.185853 0.41101 0.444043
19 1 0.195552 0.469947 0.511381
20 1 0.203825 0.622626 0.480529
21 1 0.212949 0.442048 0.522005
22 1 0.223934 0.465163 0.489455
23 1 0.234983 0.495753 0.498866
24 1 0.245454 0.548271 0.636511
25 1 0.253179 0.476127 0.430291
26 1 0.264511 0.609359 0.383387
27 1 0.272733 0.484906 0.576508
28 1 0.283178 0.526609 0.414568
29 1 0.291938 0.422823 0.577658
30 1 0.302229 0.561937 0.427492
31 1 0.312656 0.436671 0.528334
32 1 0.32082 0.655831 0.4579
33 1 0.327446 0.402171 0.578345
34 1 0.337074 0.579945 0.513338
35 1 0.347964 0.413394 0.495277
36 1 0.357682 0.603948 0.444605
37 1 0.36705 0.418716 0.50927
38 1 0.37652 0.561429 0.420417
39 1 0.387795 0.510443 0.477576
40 1 0.397585 0.399483 0.56675
41 1 0.40789 0.543899 0.517625
42 1 0.420071 0.486752 0.409945
43 1 0.427791 0.593683 0.625156
44 1 0.435562 0.388564 0.525785
45 1 0.444214 0.622285 0.500629
46 1 0.456473 0.511396 0.41376
47 1 0.464684 0.360963 0.575245
48 1 0.47361 0.535563 0.531401
49 1 0.484629 0.482574 0.457051
50 1 0.497524 0.542799 0.428537
51 1 0.505445 0.586145 0.639579
52 1 0.512049 0.448209 0.434371
53 1 0.523588 0.537593 0.500862
54 1 0.533078 0.444362 0.579437
55 1 0.541815 0.477364 0.405187
56 1 0.552268 0.531187 0.510072
57 1 0.56148 0.402032 0.551027
58 1 0.57201 0.562927 0.516811
59 1 0.579785 0.371743 0.453752
60 1 0.590785 0.351143 0.572521
61 1 0.599426 0.576182 0.540857
62 1 0.610386 0.515678 0.467959
63 1 0.620431 0.417041 0.531323
64 1 0.630375 0.539794 0.42485
65 1 0.640938 0.439056 0.477171
66 1 0.651853 0.555991 0.467571
67 1 0.659437 0.347309 0.553873
68 1 0.669392 0.528137 0.559179
69 1 0.678001 0.374753 0.393703
70 1 0.686094 0.507687 0.543575
71 1 0.697519 0.456314 0.549169
72 1 0.707217 0.592925 0.487447
73 1 0.716608 0.483756 0.530656
74 1 0.727632 0.487652 0.484276
75 1 0.738465 0.538073 0.510059
76 1 0.748869 0.557714 0.546744
77 1 0.759755 0.432142 0.559739
78 1 0.768599 0.577277 0.403748
79 1 0.776542 0.471078 0.645609
80 1 0.785523 0.583472 0.48366
81 1 0.795565 0.472149 0.384496
82 1 0.806781 0.445877 0.501637
83 1 0.815664 0.63843 0.492911
84 1 0.825046 0.457204 0.546251
85 1 0.836704 0.545791 0.486744
86 1 0.844074 0.3582 0.368638
87 1 0.854435 0.414324 0.54852
88 1 0.864298 0.600233 0.561322
89 1 0.87302 0.41909 0.46577
90 1 0.88341 0.563444 0.478878
91 1 0.895115 0.631516 0.549944
92 1 0.90359 0.421737 0.609474
93 1 0.91168 0.511436 0.409027
94 1 0.923077 0.415889 0.473565
95 1 0.933945 0.491834 0.45759
96 1 0.945374 0.393732 0.463412
97 1 0.952178 0.643801 0.552318
98 1 0.963203 0.53538 0.466061
99 1 0.976108 0.537044 0.490058
100 1 0.988656 0.543171 0.527163
ITEM: TIMESTEP
200
ITEM: NUMBER OF ATOMS
100
ITEM: BOX BOUNDS pp pp pp
0.0000000000000000e+00 1.0003000000000000e+02
0.0000000000000000e+00 5.0000000000000000e+00
0.0000000000000000e+00 5.0000000000000000e+00
ITEM: ATOMS id type xs ys zs
1 1 0.00993022 0.425252 0.412471
2 1 0.0221202 0.4564 0.453789
3 1 0.0321587 0.500788 0.596351
4 1 0.0438561 0.501512 0.684963
5 1 0.0555967 0.401912 0.680058
6 1 0.068893 0.472924 0.58393
7 1 0.0811109 0.513277 0.458076
8 1 0.0903965 0.600852 0.53909
9 1 0.100172 0.566009 0.641654
10 1 0.108324 0.533588 0.524775
11 1 0.117776 0.420364 0.505404
12 1 0.126118 0.538409 0.42092
13 1 0.135854 0.589054 0.376985
14 1 0.145033 0.541929 0.267596
15 1 0.155231 0.635628 0.305155
16 1 0.163978 0.57637 0.4853
17 1 0.177028 0.521768 0.498136
18 1 0.186845 0.369862 0.428856
19 1 0.197274 0.45713 0.497081
20 1 0.205659 0.635682 0.49063
21 1 0.211782 0.460686 0.515516
22 1 0.224382 0.445613 0.493801
23 1 0.237501 0.492781 0.51175
24 1 0.249406 0.546423 0.631332
25 1 0.254569 0.549465 0.448213
26 1 0.263982 0.578571 0.401012
27 1 0.273531 0.548303 0.487482
28 1 0.283983 0.495911 0.465323
29 1 0.293174 0.458324 0.513766
30 1 0.303469 0.513297 0.469776
31 1 0.31222 0.471779 0.497705
32 1 0.321259 0.656911 0.472237
33 1 0.326219 0.444832 0.59798
34 1 0.335988 0.531063 0.535142
35 1 0.345561 0.483629 0.477679
36 1 0.355026 0.549143 0.442958
37 1 0.364883 0.469039 0.459109
38 1 0.375511 0.539133 0.414143
39 1 0.3873 0.497525 0.471679
40 1 0.399037 0.42857 0.556604
41 1 0.409558 0.487502 0.518651
42 1 0.419728 0.542687 0.441186
43 1 0.426699 0.584414 0.640659
44 1 0.436336 0.455447 0.560098
45 1 0.445097 0.540584 0.454583
46 1 0.45395 0.498271 0.491777
47 1 0.462324 0.381109 0.534784
48 1 0.473826 0.499787 0.524764
49 1 0.484494 0.520472 0.454483
50 1 0.496432 0.558559 0.457291
51 1 0.505388 0.59874 0.606757
52 1 0.509946 0.475259 0.461058
53 1 0.521817 0.506209 0.519382
54 1 0.531674 0.450184 0.545695
55 1 0.540906 0.464348 0.425026
56 1 0.552038 0.496176 0.500249
57 1 0.56107 0.41298 0.573119
58 1 0.571733 0.488602 0.509748
59 1 0.579664 0.347018 0.50206
60 1 0.588864 0.350257 0.555835
61 1 0.597583 0.511271 0.56019
62 1 0.608374 0.512525 0.487225
63 1 0.619591 0.414121 0.508455
64 1 0.630085 0.491058 0.418161
65 1 0.64111 0.471566 0.437329
66 1 0.652535 0.48002 0.473391
67 1 0.660043 0.365397 0.568776
68 1 0.669382 0.433282 0.552279
69 1 0.675622 0.366636 0.398162
70 1 0.684061 0.462569 0.546549
71 1 0.694699 0.486883 0.563246
72 1 0.704543 0.601958 0.508306
73 1 0.713962 0.488926 0.546061
74 1 0.72709 0.466524 0.464911
75 1 0.740734 0.575391 0.521293
76 1 0.752969 0.586572 0.586128
77 1 0.762817 0.442951 0.560815
78 1 0.770372 0.543483 0.456386
79 1 0.777498 0.53353 0.631885
80 1 0.78623 0.566781 0.469132
81 1 0.795508 0.489082 0.391378
82 1 0.80632 0.492859 0.447397
83 1 0.81593 0.590773 0.51489
84 1 0.827057 0.534577 0.529766
85 1 0.836815 0.465961 0.458804
86 1 0.846291 0.357763 0.407401
87 1 0.855051 0.414318 0.500173
88 1 0.862685 0.516928 0.569478
89 1 0.874083 0.484436 0.474201
90 1 0.884678 0.577947 0.50248
91 1 0.894641 0.612951 0.570219
92 1 0.904345 0.491402 0.59621
93 1 0.91147 0.453104 0.428676
94 1 0.923944 0.406557 0.431961
95 1 0.936035 0.437694 0.437316
96 1 0.948077 0.443144 0.467323
97 1 0.955981 0.606651 0.515025
98 1 0.967129 0.599708 0.488879
99 1 0.979169 0.569614 0.483918
100 1 0.991811 0.574779 0.534196
ITEM: TIMESTEP
300
ITEM: NUMBER OF ATOMS
100
ITEM: BOX BOUNDS pp pp pp
0.0000000000000000e+00 1.0003000000000000e+02
0.0000000000000000e+00 5.0000000000000000e+00
0.0000000000000000e+00 5.0000000000000000e+00
ITEM: ATOMS id type xs ys zs
1 1 0.010729 0.409754 0.388359
2 1 0.0205628 0.453025 0.527037
3 1 0.0325195 0.500257 0.590612
4 1 0.044072 0.395866 0.680297
5 1 0.0550339 0.522898 0.667332
6 1 0.06542 0.406791 0.59631
7 1 0.0756566 0.549919 0.568392
8 1 0.0888548 0.567472 0.537856
9 1 0.0998504 0.634985 0.688279
10 1 0.109118 0.535053 0.547741
11 1 0.118237 0.349168 0.479561
12 1 0.125843 0.580257 0.465661
13 1 0.135319 0.608968 0.272896
14 1 0.146991 0.588151 0.184263
15 1 0.156271 0.62268 0.329031
16 1 0.168887 0.643358 0.383701
17 1 0.173823 0.427863 0.45196
18 1 0.18536 0.453166 0.507428
19 1 0.19762 0.457717 0.419042
20 1 0.20651 0.615225 0.520007
21 1 0.214769 0.471685 0.488242
22 1 0.227129 0.458015 0.532584
23 1 0.237511 0.48519 0.557424
24 1 0.245666 0.512998 0.649656
25 1 0.25115 0.613344 0.427368
26 1 0.263734 0.565301 0.328151
27 1 0.274093 0.648129 0.459688
28 1 0.282158 0.435126 0.49454
29 1 0.294783 0.410806 0.525176
30 1 0.306168 0.551071 0.448129
31 1 0.317046 0.44202 0.489233
32 1 0.322519 0.655717 0.510235
33 1 0.320971 0.473816 0.614255
34 1 0.332947 0.563953 0.566639
35 1 0.343603 0.463781 0.44579
36 1 0.355348 0.584415 0.410478
37 1 0.366387 0.492338 0.411907
38 1 0.377263 0.494052 0.432295
39 1 0.387766 0.429991 0.502029
40 1 0.399263 0.535639 0.49961
41 1 0.409573 0.42678 0.5273
42 1 0.419249 0.582548 0.472543
43 1 0.425788 0.588282 0.641508
44 1 0.43583 0.484878 0.588351
45 1 0.443146 0.508331 0.395778
46 1 0.452804 0.506661 0.580283
47 1 0.463701 0.38419 0.494958
48 1 0.476225 0.411912 0.499591
49 1 0.482899 0.606822 0.473413
50 1 0.495496 0.556525 0.500512
51 1 0.504752 0.620008 0.588064
52 1 0.508014 0.494439 0.429171
53 1 0.518605 0.442839 0.595396
54 1 0.529428 0.484562 0.483261
55 1 0.54061 0.475039 0.463007
56 1 0.553125 0.423209 0.438158
57 1 0.561247 0.427324 0.636755
58 1 0.569409 0.487985 0.475301
59 1 0.577301 0.277753 0.551029
60 1 0.589923 0.311597 0.53994
61 1 0.597788 0.490436 0.575234
62 1 0.608851 0.501101 0.546536
63 1 0.619139 0.455548 0.438926
64 1 0.630269 0.399084 0.443488
65 1 0.639471 0.576399 0.376015
66 1 0.650832 0.417593 0.459459
67 1 0.659074 0.316426 0.622973
68 1 0.67128 0.405777 0.576553
69 1 0.67622 0.343415 0.357654
70 1 0.682457 0.385134 0.552604
71 1 0.69153 0.570213 0.567324
72 1 0.705849 0.550627 0.545082
73 1 0.7175 0.517396 0.493207
74 1 0.728794 0.546738 0.548
75 1 0.7401 0.528778 0.523728
76 1 0.7503 0.572148 0.574368
77 1 0.762122 0.462608 0.565558
78 1 0.77242 0.546435 0.491542
79 1 0.778464 0.575274 0.644645
80 1 0.783904 0.555082 0.447617
81 1 0.795462 0.47962 0.406769
82 1 0.808367 0.553781 0.37244
83 1 0.817356 0.531845 0.54974
84 1 0.828713 0.63421 0.51168
85 1 0.832932 0.390766 0.445576
86 1 0.845206 0.302193 0.379985
87 1 0.857318 0.405053 0.463796
88 1 0.866187 0.493239 0.632919
89 1 0.872376 0.5643 0.45527
90 1 0.884447 0.557538 0.520421
91 1 0.896101 0.618847 0.603512
92 1 0.907196 0.522151 0.578774
93 1 0.913838 0.395341 0.460902
94 1 0.925574 0.471123 0.380837
95 1 0.937015 0.337122 0.440902
96 1 0.948279 0.4814 0.455666
97 1 0.958599 0.579382 0.479354
98 1 0.970224 0.671723 0.532086
99 1 0.98161 0.585263 0.471203
100 1 0.992758 0.597247 0.534144
ITEM: TIMESTEP
400
ITEM: NUMBER OF ATOMS
100
ITEM: BOX BOUNDS pp pp pp
0.0000000000000000e+00 1.0003000000000000e+02
0.0000000000000000e+00 5.0000000000000000e+00
0.0000000000000000e+00 5.0000000000000000e+00
ITEM: ATOMS id type xs ys zs
1 1 0.0138089 0.409185 0.408505
2 1 0.0220154 0.452888 0.572894
3 1 0.0328913 0.438497 0.605971
4 1 0.0446965 0.381334 0.624613
5 1 0.0530727 0.56043 0.636976
6 1 0.0632976 0.455432 0.628589
7 1 0.0738736 0.523411 0.645542
8 1 0.0857114 0.568195 0.631386
9 1 0.0979016 0.612733 0.590714
10 1 0.108491 0.511811 0.610689
11 1 0.118076 0.443234 0.478334
12 1 0.127517 0.540798 0.399771
13 1 0.135278 0.6089 0.250117
14 1 0.14664 0.631905 0.195836
15 1 0.157731 0.625451 0.299018
16 1 0.169793 0.613448 0.325514
17 1 0.174727 0.446263 0.420457
18 1 0.184445 0.487672 0.501114
19 1 0.195843 0.493517 0.430526
20 1 0.204495 0.587632 0.521274
21 1 0.214114 0.468143 0.438398
22 1 0.225995 0.44496 0.564242
23 1 0.239038 0.482113 0.545553
24 1 0.25041 0.541196 0.653757
25 1 0.251649 0.600727 0.444353
26 1 0.262363 0.620721 0.362974
27 1 0.273188 0.57719 0.41332
28 1 0.284172 0.489574 0.498542
29 1 0.294655 0.44861 0.491716
30 1 0.306399 0.50115 0.474548
31 1 0.319488 0.471851 0.48893
32 1 0.323961 0.651996 0.503859
33 1 0.319916 0.488914 0.633006
34 1 0.330227 0.517607 0.553418
35 1 0.340535 0.528785 0.467361
36 1 0.352188 0.576324 0.391951
37 1 0.365313 0.502991 0.376568
38 1 0.378818 0.463608 0.439342
39 1 0.391118 0.431123 0.50734
40 1 0.400367 0.553993 0.480481
41 1 0.409289 0.394273 0.519959
42 1 0.416699 0.614502 0.491201
43 1 0.424696 0.592981 0.665506
44 1 0.435915 0.525887 0.601626
45 1 0.443691 0.453015 0.404592
46 1 0.454223 0.47976 0.566386
47 1 0.464919 0.408686 0.497084
48 1 0.474845 0.423052 0.48061
49 1 0.481517 0.602986 0.491406
50 1 0.4948 0.570393 0.529347
51 1 0.504425 0.647553 0.600669
52 1 0.5081 0.466225 0.425803
53 1 0.515178 0.437772 0.578385
54 1 0.527863 0.487972 0.475916
55 1 0.540391 0.46306 0.459653
56 1 0.55286 0.40137 0.456441
57 1 0.560734 0.427898 0.631712
58 1 0.568795 0.436723 0.477411
59 1 0.576227 0.278363 0.562443
60 1 0.587979 0.29597 0.548352
61 1 0.596605 0.448848 0.588131
62 1 0.609595 0.503042 0.566085
63 1 0.621036 0.468791 0.408778
64 1 0.631707 0.378346 0.435399
65 1 0.641365 0.527335 0.386201
66 1 0.64908 0.407423 0.490381
67 1 0.657079 0.370347 0.579857
68 1 0.669743 0.310289 0.567784
69 1 0.676762 0.350373 0.368607
70 1 0.68375 0.402708 0.546611
71 1 0.693056 0.536631 0.560162
72 1 0.704901 0.520842 0.55636
73 1 0.716102 0.556434 0.490785
74 1 0.72779 0.600129 0.598969
75 1 0.738724 0.486548 0.520173
76 1 0.749472 0.561672 0.582647
77 1 0.761462 0.508897 0.535139
78 1 0.773204 0.501445 0.507724
79 1 0.780908 0.618948 0.656193
80 1 0.7851 0.549635 0.469705
81 1 0.796715 0.522091 0.395869
82 1 0.808763 0.555154 0.394915
83 1 0.818007 0.514585 0.509476
84 1 0.829306 0.596558 0.474913
85 1 0.83457 0.382014 0.427691
86 1 0.844863 0.364357 0.437095
87 1 0.855723 0.372088 0.466673
88 1 0.865009 0.462501 0.58421
89 1 0.873125 0.578721 0.488595
90 1 0.884565 0.582616 0.528291
91 1 0.896179 0.603495 0.605746
92 1 0.909387 0.551081 0.558238
93 1 0.918122 0.374547 0.474612
94 1 0.928132 0.437363 0.391573
95 1 0.938 0.373618 0.422536
96 1 0.948543 0.499488 0.450327
97 1 0.959891 0.539145 0.453721
98 1 0.970803 0.683208 0.53198
99 1 0.982341 0.623698 0.490364
100 1 0.99315 0.61223 0.525477
ITEM: TIMESTEP
500
ITEM: NUMBER OF ATOMS
100
ITEM: BOX BOUNDS pp pp pp
0.0000000000000000e+00 1.0003000000000000e+02
0.0000000000000000e+00 5.0000000000000000e+00
0.0000000000000000e+00 5.0000000000000000e+00
ITEM: ATOMS id type xs ys zs
1 1 0.0161133 0.403582 0.406044
2 1 0.0226073 0.467043 0.634913
3 1 0.0340236 0.37328 0.623426
4 1 0.0460636 0.372066 0.573033
5 1 0.0498827 0.594851 0.600647
6 1 0.0617388 0.516905 0.657158
7 1 0.0742049 0.47327 0.721312
8 1 0.0860497 0.588631 0.705607
9 1 0.0946097 0.553291 0.537593
10 1 0.105666 0.517906 0.631431
11 1 0.116822 0.514784 0.494565
12 1 0.127973 0.500424 0.360695
13 1 0.136257 0.611662 0.183831
14 1 0.147213 0.699284 0.282225
15 1 0.158161 0.624186 0.216611
16 1 0.169316 0.596908 0.246355
17 1 0.174065 0.431793 0.384493
18 1 0.183719 0.527486 0.544696
19 1 0.195697 0.516189 0.409402
20 1 0.205772 0.558965 0.524594
21 1 0.217022 0.471571 0.4695
22 1 0.22723 0.464242 0.522062
23 1 0.237762 0.482545 0.587329
24 1 0.249915 0.530902 0.657759
25 1 0.251863 0.601431 0.424041
26 1 0.264813 0.657182 0.406141
27 1 0.272705 0.460481 0.377157
28 1 0.283656 0.612495 0.483071
29 1 0.29569 0.496764 0.442594
30 1 0.306829 0.427147 0.51329
31 1 0.318597 0.477473 0.484017
32 1 0.324676 0.652747 0.527738
33 1 0.318949 0.53566 0.64144
34 1 0.329912 0.468018 0.512324
35 1 0.341977 0.587107 0.459977
36 1 0.353992 0.522654 0.402245
37 1 0.365496 0.533027 0.399968
38 1 0.376161 0.428161 0.444707
39 1 0.388459 0.484954 0.462761
40 1 0.399911 0.558615 0.46245
41 1 0.410237 0.396144 0.514883
42 1 0.414085 0.608208 0.52284
43 1 0.424831 0.588792 0.66382
44 1 0.435101 0.543161 0.581734
45 1 0.443507 0.435854 0.468846
46 1 0.45245 0.461307 0.555844
47 1 0.463897 0.400199 0.501921
48 1 0.475802 0.435794 0.421666
49 1 0.482686 0.60076 0.527838
50 1 0.494186 0.602026 0.568109
51 1 0.504815 0.638515 0.578546
52 1 0.507847 0.473243 0.421257
53 1 0.516386 0.462803 0.534409
54 1 0.528685 0.447436 0.530727
55 1 0.538042 0.43363 0.436986
56 1 0.548859 0.413185 0.511232
57 1 0.558439 0.426394 0.614462
58 1 0.568564 0.399377 0.465476
59 1 0.575895 0.265688 0.574828
60 1 0.588208 0.344659 0.571126
61 1 0.600056 0.357807 0.586062
62 1 0.608915 0.466268 0.475107
63 1 0.621002 0.483745 0.493825
64 1 0.630167 0.39513 0.420006
65 1 0.638971 0.524013 0.349735
66 1 0.646446 0.362925 0.525614
67 1 0.659104 0.396974 0.591955
68 1 0.670105 0.249637 0.536121
69 1 0.675274 0.321279 0.377782
70 1 0.684149 0.425519 0.549486
71 1 0.695295 0.512939 0.558729
72 1 0.706395 0.480588 0.549499
73 1 0.715459 0.625924 0.546365
74 1 0.726891 0.607165 0.584695
75 1 0.736593 0.478229 0.546593
76 1 0.748491 0.545741 0.569272
77 1 0.760888 0.532601 0.528063
78 1 0.773157 0.495163 0.531932
79 1 0.78116 0.667949 0.647406
80 1 0.788876 0.483813 0.527134
81 1 0.796869 0.609587 0.343334
82 1 0.808046 0.54452 0.422274
83 1 0.818691 0.490707 0.476746
84 1 0.830109 0.581957 0.441688
85 1 0.833575 0.349764 0.390651
86 1 0.844223 0.456783 0.512642
87 1 0.855461 0.288966 0.463836
88 1 0.865347 0.460999 0.497783
89 1 0.875385 0.577222 0.583138
90 1 0.887963 0.639211 0.545773
91 1 0.897958 0.539455 0.552579
92 1 0.908387 0.542393 0.523573
93 1 0.918411 0.413363 0.528481
94 1 0.928913 0.429863 0.391868
95 1 0.940845 0.381502 0.409809
96 1 0.951103 0.542605 0.451068
97 1 0.961335 0.516641 0.446913
98 1 0.970741 0.635331 0.489759
99 1 0.981545 0.698702 0.544336
100 1 0.993604 0.61416 0.502615
ITEM: TIMESTEP
600
ITEM: NUMBER OF ATOMS
100
ITEM: BOX BOUNDS pp pp pp
0.0000000000000000e+00 1.0003000000000000e+02
0.0000000000000000e+00 5.0000000000000000e+00
0.0000000000000000e+00 5.0000000000000000e+00
ITEM: ATOMS id type xs ys zs
1 1 0.0194282 0.412629 0.45077
2 1 0.0247477 0.442315 0.647577
3 1 0.0348885 0.334779 0.62938
4 1 0.0455083 0.379374 0.539291
5 1 0.051276 0.583002 0.592179
6 1 0.0621057 0.569587 0.693517
7 1 0.0727197 0.510387 0.751517
8 1 0.0845969 0.549074 0.736005
9 1 0.092009 0.477778 0.565667
10 1 0.105173 0.541946 0.541079
11 1 0.117321 0.586164 0.491984
12 1 0.124698 0.524496 0.332949
13 1 0.135561 0.597778 0.252876
14 1 0.14594 0.702072 0.271447
15 1 0.157173 0.645987 0.179793
16 1 0.169449 0.575214 0.186655
17 1 0.175187 0.455583 0.382306
18 1 0.184177 0.528314 0.485415
19 1 0.194061 0.550809 0.454226
20 1 0.204329 0.521781 0.504758
21 1 0.218119 0.478855 0.513049
22 1 0.230213 0.484814 0.454782
23 1 0.23754 0.480104 0.659823
24 1 0.249388 0.5328 0.610675
25 1 0.255377 0.616301 0.438007
26 1 0.266808 0.613183 0.462279
27 1 0.274814 0.473832 0.400479
28 1 0.28418 0.602691 0.383763
29 1 0.295562 0.552675 0.449313
30 1 0.304064 0.418722 0.506182
31 1 0.317535 0.496478 0.492658
32 1 0.327766 0.668184 0.503269
33 1 0.321365 0.494043 0.611169
34 1 0.32972 0.537312 0.517389
35 1 0.34161 0.563379 0.451207
36 1 0.353371 0.470345 0.448887
37 1 0.364445 0.552634 0.432972
38 1 0.375006 0.431546 0.445253
39 1 0.386358 0.535973 0.417831
40 1 0.39776 0.50711 0.45377
41 1 0.408623 0.421937 0.50435
42 1 0.411799 0.625285 0.562272
43 1 0.423048 0.578066 0.663519
44 1 0.434246 0.588682 0.559956
45 1 0.442237 0.387409 0.489943
46 1 0.452474 0.448507 0.578267
47 1 0.464275 0.388909 0.493273
48 1 0.475453 0.45088 0.39434
49 1 0.481788 0.589095 0.534619
50 1 0.493617 0.622412 0.60232
51 1 0.507637 0.626327 0.551356
52 1 0.505625 0.492887 0.3932
53 1 0.516141 0.492974 0.551594
54 1 0.529016 0.416129 0.568919
55 1 0.535993 0.408284 0.396081
56 1 0.546371 0.411326 0.559132
57 1 0.55862 0.435829 0.617384
58 1 0.568492 0.347681 0.456299
59 1 0.577319 0.267542 0.584701
60 1 0.589418 0.377533 0.597983
61 1 0.600475 0.297709 0.55359
62 1 0.609112 0.413803 0.454167
63 1 0.619007 0.500502 0.551484
64 1 0.628577 0.381763 0.402299
65 1 0.640607 0.469502 0.371928
66 1 0.647794 0.404124 0.526337
67 1 0.657943 0.355475 0.54589
68 1 0.667141 0.230438 0.54579
69 1 0.675236 0.324883 0.393235
70 1 0.683789 0.42809 0.527833
71 1 0.695539 0.48255 0.555906
72 1 0.708045 0.453507 0.548991
73 1 0.714981 0.673398 0.583446
74 1 0.726729 0.621014 0.587608
75 1 0.737047 0.491646 0.580821
76 1 0.749262 0.490365 0.517824
77 1 0.759905 0.565075 0.534188
78 1 0.770277 0.553955 0.610225
79 1 0.781957 0.612566 0.581039
80 1 0.792186 0.539246 0.529537
81 1 0.796186 0.614376 0.379995
82 1 0.807302 0.547816 0.43124
83 1 0.819062 0.469224 0.444932
84 1 0.830789 0.564891 0.407484
85 1 0.836027 0.357313 0.392207
86 1 0.844704 0.416705 0.520412
87 1 0.855762 0.380415 0.484078
88 1 0.866244 0.44042 0.487797
89 1 0.875281 0.537284 0.593259
90 1 0.887363 0.666266 0.570573
91 1 0.897306 0.498445 0.516056
92 1 0.909563 0.535192 0.483651
93 1 0.921126 0.443306 0.563332
94 1 0.930811 0.398755 0.416871
95 1 0.941797 0.408011 0.387303
96 1 0.950846 0.56979 0.447747
97 1 0.962051 0.480275 0.427732
98 1 0.973277 0.624127 0.475103
99 1 0.982691 0.756195 0.583387
100 1 0.992658 0.623845 0.483044
ITEM: TIMESTEP
700
ITEM: NUMBER OF ATOMS
100
ITEM: BOX BOUNDS pp pp pp
0.0000000000000000e+00 1.0003000000000000e+02
0.0000000000000000e+00 5.0000000000000000e+00
0.0000000000000000e+00 5.0000000000000000e+00
ITEM: ATOMS id type xs ys zs
1 1 0.0225616 0.415565 0.482472
2 1 0.0268044 0.432503 0.684267
3 1 0.0365535 0.274103 0.635495
4 1 0.0444989 0.409901 0.494606
5 1 0.0538883 0.530951 0.57673
6 1 0.0613232 0.657338 0.740087
7 1 0.0725836 0.563924 0.785054
8 1 0.0841287 0.47338 0.730403
9 1 0.0945845 0.45018 0.614858
10 1 0.102917 0.552306 0.44819
11 1 0.113604 0.63413 0.483087
12 1 0.122265 0.576922 0.300323
13 1 0.135677 0.593304 0.35916
14 1 0.145093 0.632563 0.199504
15 1 0.157654 0.719403 0.209489
16 1 0.163811 0.503002 0.144298
17 1 0.173334 0.495787 0.306541
18 1 0.182384 0.541556 0.467438
19 1 0.196092 0.601182 0.482836
20 1 0.207936 0.478724 0.503501
21 1 0.220698 0.494208 0.516338
22 1 0.230306 0.500807 0.468617
23 1 0.236537 0.482178 0.66866
24 1 0.247585 0.528518 0.593683
25 1 0.257125 0.629207 0.453046
26 1 0.26906 0.59768 0.504739
27 1 0.278639 0.471205 0.400346
28 1 0.286277 0.583257 0.300197
29 1 0.297082 0.592438 0.473234
30 1 0.307557 0.463335 0.450794
31 1 0.314481 0.642514 0.566962
32 1 0.325302 0.540726 0.429901
33 1 0.32264 0.426749 0.594071
34 1 0.330162 0.616811 0.516728
35 1 0.342252 0.528582 0.449046
36 1 0.352689 0.434989 0.493774
37 1 0.363041 0.549233 0.475792
38 1 0.374117 0.462751 0.442927
39 1 0.384242 0.584667 0.369461
40 1 0.394561 0.449352 0.444615
41 1 0.40623 0.43732 0.487042
42 1 0.410936 0.64273 0.616943
43 1 0.422097 0.587065 0.620466
44 1 0.432338 0.574346 0.555758
45 1 0.440696 0.396932 0.550464
46 1 0.453413 0.407702 0.557708
47 1 0.464719 0.411969 0.482495
48 1 0.474405 0.49805 0.425223
49 1 0.484938 0.528878 0.532174
50 1 0.492591 0.67101 0.59216
51 1 0.505414 0.624942 0.603741
52 1 0.507622 0.477878 0.374251
53 1 0.516283 0.491838 0.499211
54 1 0.525789 0.410906 0.597546
55 1 0.535746 0.384962 0.422605
56 1 0.545519 0.418382 0.572353
57 1 0.556449 0.398599 0.547092
58 1 0.567862 0.319448 0.522909
59 1 0.578971 0.305746 0.573741
60 1 0.590386 0.378315 0.627651
61 1 0.598102 0.25574 0.486493
62 1 0.610413 0.325255 0.466101
63 1 0.618301 0.489301 0.563591
64 1 0.627627 0.438659 0.422859
65 1 0.638145 0.417879 0.37164
66 1 0.645528 0.440881 0.545616
67 1 0.658248 0.336672 0.501941
68 1 0.667802 0.150619 0.54952
69 1 0.676158 0.352328 0.425488
70 1 0.685282 0.435465 0.506895
71 1 0.696573 0.398603 0.539368
72 1 0.706409 0.526525 0.552341
73 1 0.715768 0.641595 0.642882
74 1 0.726609 0.613176 0.561156
75 1 0.737507 0.534814 0.615801
76 1 0.747063 0.456805 0.484115
77 1 0.757414 0.582059 0.53971
78 1 0.769158 0.598329 0.667351
79 1 0.781859 0.583199 0.553518
80 1 0.794931 0.554072 0.573773
81 1 0.798761 0.645449 0.363082
82 1 0.80778 0.545354 0.441818
83 1 0.819129 0.472293 0.395826
84 1 0.829549 0.535963 0.375779
85 1 0.836988 0.351132 0.381836
86 1 0.8448 0.401586 0.545352
87 1 0.856392 0.487315 0.498379
88 1 0.869477 0.393154 0.499041
89 1 0.877947 0.546971 0.567896
90 1 0.888589 0.536452 0.597061
91 1 0.898214 0.58299 0.47697
92 1 0.908919 0.466904 0.490331
93 1 0.920829 0.490852 0.548515
94 1 0.931705 0.395957 0.453697
95 1 0.943056 0.430109 0.377991
96 1 0.952708 0.570333 0.433175
97 1 0.964835 0.564712 0.436986
98 1 0.976499 0.564955 0.483378
99 1 0.980436 0.743825 0.55895
100 1 0.990042 0.658766 0.480984
ITEM: TIMESTEP
800
ITEM: NUMBER OF ATOMS
100
ITEM: BOX BOUNDS pp pp pp
0.0000000000000000e+00 1.0003000000000000e+02
0.0000000000000000e+00 5.0000000000000000e+00
0.0000000000000000e+00 5.0000000000000000e+00
ITEM: ATOMS id type xs ys zs
1 1 0.0254679 0.418596 0.494337
2 1 0.0303267 0.40236 0.73775
3 1 0.0382544 0.262579 0.615455
4 1 0.0451476 0.429657 0.503249
5 1 0.0548642 0.519962 0.592951
6 1 0.0622554 0.656295 0.739059
7 1 0.0737798 0.593057 0.781306
8 1 0.083813 0.447036 0.710942
9 1 0.0960054 0.464455 0.647439
10 1 0.0997492 0.539542 0.412989
11 1 0.110597 0.642485 0.401292
12 1 0.123267 0.669878 0.371717
13 1 0.135052 0.596814 0.351901
14 1 0.143121 0.593478 0.225887
15 1 0.153297 0.663111 0.187687
16 1 0.162147 0.534484 0.182914
17 1 0.173218 0.535035 0.269285
18 1 0.184117 0.569224 0.377901
19 1 0.195713 0.541567 0.515914
20 1 0.207056 0.506536 0.488862
21 1 0.219489 0.507546 0.524088
22 1 0.231486 0.519532 0.460727
23 1 0.238533 0.493528 0.676642
24 1 0.246422 0.559222 0.515832
25 1 0.258809 0.5974 0.578581
26 1 0.269298 0.521359 0.485112
27 1 0.282502 0.546226 0.435863
28 1 0.290813 0.540648 0.256264
29 1 0.297759 0.60612 0.447636
30 1 0.308699 0.575502 0.432168
31 1 0.316882 0.673937 0.518827
32 1 0.318835 0.523818 0.387933
33 1 0.32584 0.394728 0.596507
34 1 0.330451 0.602371 0.535336
35 1 0.341256 0.503946 0.472196
36 1 0.350498 0.416455 0.531596
37 1 0.362162 0.541179 0.512285
38 1 0.373774 0.514331 0.433193
39 1 0.383421 0.589363 0.351364
40 1 0.391796 0.419223 0.433797
41 1 0.401334 0.507672 0.478645
42 1 0.408125 0.601986 0.67576
43 1 0.420109 0.609489 0.548162
44 1 0.432559 0.555742 0.550995
45 1 0.440775 0.398583 0.6095
46 1 0.452675 0.374261 0.542504
47 1 0.464135 0.42502 0.480288
48 1 0.474213 0.571505 0.445549
49 1 0.487806 0.482769 0.538313
50 1 0.493417 0.65053 0.581752
51 1 0.503017 0.614107 0.578756
52 1 0.505298 0.498142 0.379788
53 1 0.518251 0.513239 0.469788
54 1 0.524965 0.386687 0.631964
55 1 0.534994 0.366973 0.471835
56 1 0.545248 0.422344 0.578408
57 1 0.555606 0.344437 0.466605
58 1 0.566829 0.300482 0.622948
59 1 0.579541 0.357365 0.546681
60 1 0.591542 0.349859 0.619147
61 1 0.597648 0.245033 0.458089
62 1 0.609237 0.280356 0.499854
63 1 0.615485 0.444554 0.561385
64 1 0.626701 0.466785 0.439739
65 1 0.638031 0.36926 0.378169
66 1 0.648476 0.443058 0.523027
67 1 0.656724 0.275124 0.505327
68 1 0.665448 0.212874 0.509334
69 1 0.676263 0.333348 0.471281
70 1 0.685434 0.439096 0.490498
71 1 0.698233 0.3373 0.527703
72 1 0.705051 0.549978 0.572097
73 1 0.715961 0.628832 0.660606
74 1 0.727312 0.611881 0.568403
75 1 0.739071 0.563944 0.624526
76 1 0.748369 0.489916 0.478461
77 1 0.758349 0.5417 0.62588
78 1 0.769865 0.63175 0.548742
79 1 0.779421 0.538854 0.625175
80 1 0.789796 0.616477 0.566808
81 1 0.799619 0.675449 0.362921
82 1 0.808082 0.537835 0.478546
83 1 0.819229 0.444849 0.343964
84 1 0.829852 0.528894 0.332818
85 1 0.838934 0.346717 0.385405
86 1 0.848607 0.404532 0.546338
87 1 0.857729 0.521239 0.528825
88 1 0.867744 0.401816 0.504422
89 1 0.879626 0.495479 0.563239
90 1 0.891175 0.492534 0.583899
91 1 0.901104 0.599531 0.469469
92 1 0.909756 0.440636 0.502192
93 1 0.920331 0.497334 0.473245
94 1 0.932316 0.435266 0.536389
95 1 0.942746 0.466662 0.379866
96 1 0.954206 0.560769 0.414306
97 1 0.96652 0.592817 0.439834
98 1 0.977492 0.54355 0.484107
99 1 0.978972 0.743 0.551528
100 1 0.988674 0.687199 0.471411
ITEM: TIMESTEP
900
ITEM: NUMBER OF ATOMS
100
ITEM: BOX BOUNDS pp pp pp
0.0000000000000000e+00 1.0003000000000000e+02
0.0000000000000000e+00 5.0000000000000000e+00
0.0000000000000000e+00 5.0000000000000000e+00
ITEM: ATOMS id type xs ys zs
1 1 0.0287601 0.422201 0.529389
2 1 0.0334213 0.369169 0.756362