ITEM: TIMESTEP
0
ITEM: NUMBER OF ATOMS
50
ITEM: BOX BOUNDS pp pp pp
0.0000000000000000e+00 5.1530000000000001e+01
0.0000000000000000e+00 5.0000000000000000e+00
0.0000000000000000e+00 5.0000000000000000e+00
ITEM: ATOMS id type xs ys zs
1 1 0.0388123 0.5 0.5
2 1 0.0576363 0.5 0.5
3 1 0.0764603 0.5 0.5
4 1 0.0952843 0.5 0.5
5 1 0.114108 0.5 0.5
6 1 0.132932 0.5 0.5
7 1 0.151756 0.5 0.5
8 1 0.17058 0.5 0.5
9 1 0.189404 0.5 0.5
10 1 0.208228 0.5 0.5
11 1 0.227052 0.5 0.5
12 1 0.245876 0.5 0.5
13 1 0.2647 0.5 0.5
14 1 0.283524 0.5 0.5
15 1 0.302348 0.5 0.5
16 1 0.321172 0.5 0.5
17 1 0.339996 0.5 0.5
18 1 0.35882 0.5 0.5
19 1 0.377644 0.5 0.5
20 1 0.396468 0.5 0.5
21 1 0.415292 0.5 0.5
22 1 0.434116 0.5 0.5
23 1 0.45294 0.5 0.5
24 1 0.471764 0.5 0.5
25 1 0.490588 0.5 0.5
26 1 0.509412 0.5 0.5
27 1 0.528236 0.5 0.5
28 1 0.54706 0.5 0.5
29 1 0.565884 0.5 0.5
30 1 0.584708 0.5 0.5
31 1 0.603532 0.5 0.5
32 1 0.622356 0.5 0.5
33 1 0.64118 0.5 0.5
34 1 0.660004 0.5 0.5
35 1 0.678828 0.5 0.5
36 1 0.697652 0.5 0.5
37 1 0.716476 0.5 0.5
38 1 0.7353 0.5 0.5
39 1 0.754124 0.5 0.5
40 1 0.772948 0.5 0.5
41 1 0.791772 0.5 0.5
42 1 0.810596 0.5 0.5
43 1 0.82942 0.5 0.5
44 1 0.848244 0.5 0.5
45 1 0.867068 0.5 0.5
46 1 0.885892 0.5 0.5
47 1 0.904716 0.5 0.5
48 1 0.92354 0.5 0.5
49 1 0.942364 0.5 0.5
50 1 0.961188 0.5 0.5
ITEM: TIMESTEP
100
ITEM: NUMBER OF ATOMS
50
ITEM: BOX BOUNDS pp pp pp
0.0000000000000000e+00 5.1530000000000001e+01
0.0000000000000000e+00 5.0000000000000000e+00
0.0000000000000000e+00 5.0000000000000000e+00
ITEM: ATOMS id type xs ys zs
1 1 0.0248701 0.431027 0.437392
2 1 0.0490869 0.45292 0.41405
3 1 0.068044 0.484893 0.612312
4 1 0.093537 0.530257 0.665777
5 1 0.112891 0.397945 0.638377
6 1 0.133986 0.473918 0.573819
7 1 0.154255 0.477167 0.45591
8 1 0.17337 0.620576 0.51954
9 1 0.192518 0.495231 0.691188
10 1 0.208732 0.559904 0.455723
11 1 0.227646 0.388087 0.555896
12 1 0.243807 0.52234 0.392401
13 1 0.26801 0.622605 0.477873
14 1 0.284889 0.473946 0.276155
15 1 0.305451 0.610071 0.347695
16 1 0.321532 0.544334 0.497133
17 1 0.343823 0.534686 0.510277
18 1 0.361964 0.368989 0.427949
19 1 0.381036 0.459767 0.516021
20 1 0.395826 0.64571 0.479405
21 1 0.41253 0.418831 0.531426
22 1 0.435286 0.446219 0.490804
23 1 0.457944 0.48876 0.512239
24 1 0.479006 0.548353 0.65854
25 1 0.492682 0.476624 0.42751
26 1 0.515771 0.624312 0.360437
27 1 0.530021 0.483549 0.584595
28 1 0.551493 0.518281 0.408171
29 1 0.567387 0.40084 0.590488
30 1 0.587807 0.559675 0.419527
31 1 0.608497 0.441604 0.52611
32 1 0.623403 0.655027 0.466687
33 1 0.633844 0.406705 0.590061
34 1 0.652515 0.567921 0.527944
35 1 0.674783 0.403342 0.494898
36 1 0.693632 0.607025 0.435511
37 1 0.711518 0.400773 0.507005
38 1 0.729461 0.568477 0.399254
39 1 0.752722 0.50135 0.476593
40 1 0.771769 0.372305 0.586355
41 1 0.792026 0.536231 0.521555
42 1 0.817282 0.492254 0.41787
43 1 0.831507 0.581904 0.634387
44 1 0.84585 0.386175 0.551155
45 1 0.861356 0.635064 0.503114
46 1 0.886232 0.498155 0.40392
47 1 0.901218 0.33487 0.587367
48 1 0.919708 0.515419 0.541336
49 1 0.944518 0.484378 0.452105
50 1 0.972956 0.551206 0.448143
ITEM: TIMESTEP
200
ITEM: NUMBER OF ATOMS
50
ITEM: BOX BOUNDS pp pp pp
0.0000000000000000e+00 5.1530000000000001e+01
0.0000000000000000e+00 5.0000000000000000e+00
0.0000000000000000e+00 5.0000000000000000e+00
ITEM: ATOMS id type xs ys zs
1 1 0.0216168 0.381958 0.383248
2 1 0.0437522 0.428382 0.48625
3 1 0.0632402 0.481891 0.621123
4 1 0.0837788 0.449639 0.740649
5 1 0.108647 0.404616 0.741213
6 1 0.134772 0.432729 0.616353
7 1 0.15775 0.52201 0.510242
8 1 0.175273 0.588889 0.569515
9 1 0.194862 0.600836 0.668168
10 1 0.211796 0.504836 0.573513
11 1 0.230434 0.41832 0.478951
12 1 0.247413 0.540298 0.420954
13 1 0.262856 0.571873 0.298004
14 1 0.284439 0.587328 0.216271
15 1 0.305302 0.642261 0.263177
16 1 0.322561 0.593601 0.434015
17 1 0.343611 0.491991 0.474678
18 1 0.364614 0.364579 0.441529
19 1 0.38378 0.437059 0.48771
20 1 0.399744 0.620257 0.499692
21 1 0.414673 0.453295 0.513512
22 1 0.436384 0.432461 0.519755
23 1 0.460715 0.473177 0.547717
24 1 0.48674 0.529857 0.628276
25 1 0.496942 0.580678 0.452187
26 1 0.514226 0.569754 0.395552
27 1 0.534594 0.568001 0.456527
28 1 0.553246 0.473698 0.474744
29 1 0.570421 0.439223 0.509026
30 1 0.590748 0.494856 0.47897
31 1 0.607399 0.46559 0.488891
32 1 0.624783 0.685629 0.475924
33 1 0.630749 0.435283 0.638822
34 1 0.650253 0.496536 0.56328
35 1 0.668736 0.49989 0.471568
36 1 0.687489 0.521398 0.43415
37 1 0.70848 0.472593 0.431031
38 1 0.730243 0.508636 0.415106
39 1 0.750766 0.471228 0.47467
40 1 0.773011 0.436477 0.5462
41 1 0.795265 0.437318 0.526277
42 1 0.812 0.57155 0.46948
43 1 0.82889 0.572872 0.663779
44 1 0.850654 0.455348 0.608489
45 1 0.864964 0.510469 0.435402
46 1 0.881138 0.481527 0.526864
47 1 0.901268 0.394321 0.51601
48 1 0.926342 0.431275 0.519514
49 1 0.943296 0.526509 0.485488
50 1 0.965345 0.547199 0.407533
ITEM: TIMESTEP
300
ITEM: NUMBER OF ATOMS
50
ITEM: BOX BOUNDS pp pp pp
0.0000000000000000e+00 5.1530000000000001e+01
0.0000000000000000e+00 5.0000000000000000e+00
0.0000000000000000e+00 5.0000000000000000e+00
ITEM: ATOMS id type xs ys zs
1 1 0.0280741 0.357684 0.373691
2 1 0.0403117 0.414492 0.588175
3 1 0.0651053 0.44473 0.629254
4 1 0.0875414 0.342946 0.715862
5 1 0.103819 0.504333 0.714589
6 1 0.124649 0.388892 0.684064
7 1 0.146514 0.540099 0.655189
8 1 0.172359 0.552071 0.609587
9 1 0.197201 0.655013 0.678846
10 1 0.214401 0.494543 0.632217
11 1 0.231021 0.410004 0.439614
12 1 0.252994 0.571968 0.415663
13 1 0.261555 0.563579 0.182022
14 1 0.284022 0.661307 0.156626
15 1 0.306166 0.637959 0.259888
16 1 0.334762 0.645316 0.298632
17 1 0.337737 0.400371 0.411536
18 1 0.361156 0.45247 0.506351
19 1 0.384998 0.42387 0.417148
20 1 0.403615 0.588552 0.531764
21 1 0.419638 0.463692 0.473561
22 1 0.441306 0.459233 0.599933
23 1 0.463018 0.448581 0.586818
24 1 0.481915 0.498796 0.617152
25 1 0.49183 0.650622 0.457796
26 1 0.514314 0.557339 0.354095
27 1 0.538608 0.663812 0.377488
28 1 0.545611 0.423015 0.514516
29 1 0.573247 0.373635 0.513026
30 1 0.598621 0.525167 0.471365
31 1 0.620455 0.428144 0.448753
32 1 0.625086 0.679915 0.559226
33 1 0.617897 0.501646 0.663294
34 1 0.644926 0.472023 0.617053
35 1 0.66214 0.546248 0.423545
36 1 0.687276 0.510857 0.395777
37 1 0.711859 0.521043 0.350501
38 1 0.731599 0.430635 0.44179
39 1 0.755687 0.38633 0.521893
40 1 0.777692 0.550593 0.46616
41 1 0.793358 0.406124 0.524065
42 1 0.807751 0.575845 0.558745
43 1 0.828744 0.567979 0.642507
44 1 0.849956 0.509726 0.607626
45 1 0.86553 0.434561 0.47406
46 1 0.883002 0.452041 0.578118
47 1 0.904489 0.487172 0.466452
48 1 0.929526 0.333136 0.498587
49 1 0.93815 0.552376 0.529794
50 1 0.958766 0.539515 0.365585
ITEM: TIMESTEP
400
ITEM: NUMBER OF ATOMS
50
ITEM: BOX BOUNDS pp pp pp
0.0000000000000000e+00 5.1530000000000001e+01
0.0000000000000000e+00 5.0000000000000000e+00
0.0000000000000000e+00 5.0000000000000000e+00
ITEM: ATOMS id type xs ys zs
1 1 0.038363 0.353937 0.432526
2 1 0.0455272 0.403417 0.641254
3 1 0.0646368 0.328769 0.669798
4 1 0.088492 0.320433 0.627271
5 1 0.100545 0.541168 0.688433
6 1 0.121475 0.484116 0.741572
7 1 0.144686 0.484638 0.763574
8 1 0.167039 0.580183 0.73895
9 1 0.18972 0.52926 0.596613
10 1 0.21381 0.523742 0.619401
11 1 0.235691 0.563027 0.510156
12 1 0.247829 0.473172 0.305762
13 1 0.266713 0.605258 0.171363
14 1 0.290859 0.685806 0.171769
15 1 0.309079 0.658295 0.199888
16 1 0.32863 0.570773 0.217722
17 1 0.343326 0.45381 0.351573
18 1 0.359103 0.494074 0.472331
19 1 0.380231 0.479102 0.447543
20 1 0.401899 0.508183 0.514308
21 1 0.422863 0.468407 0.43197
22 1 0.439324 0.469886 0.660159
23 1 0.464043 0.442411 0.607842
24 1 0.486209 0.484041 0.639733
25 1 0.494115 0.626195 0.419948
26 1 0.517589 0.688417 0.371354
27 1 0.534747 0.527259 0.37829
28 1 0.557083 0.49106 0.459668
29 1 0.575444 0.48593 0.483483
30 1 0.596714 0.407573 0.497245
31 1 0.620771 0.490374 0.473182
32 1 0.627368 0.646498 0.538601
33 1 0.619238 0.483844 0.69815
34 1 0.637218 0.525776 0.553832
35 1 0.659518 0.517683 0.48868
36 1 0.683677 0.526854 0.365189
37 1 0.711854 0.48919 0.366353
38 1 0.734824 0.422277 0.435961
39 1 0.757204 0.416794 0.486186
40 1 0.773583 0.562979 0.429498
41 1 0.791862 0.402605 0.499851
42 1 0.803337 0.541879 0.710456
43 1 0.825678 0.548993 0.583753
44 1 0.852405 0.583305 0.556182
45 1 0.865886 0.349997 0.61552
46 1 0.889616 0.42859 0.522154
47 1 0.912376 0.517387 0.497405
48 1 0.923668 0.324066 0.441503
49 1 0.935528 0.551053 0.552762
50 1 0.948604 0.537514 0.353282
ITEM: TIMESTEP
500
ITEM: NUMBER OF ATOMS
50
ITEM: BOX BOUNDS pp pp pp
0.0000000000000000e+00 5.1530000000000001e+01
0.0000000000000000e+00 5.0000000000000000e+00
0.0000000000000000e+00 5.0000000000000000e+00
ITEM: ATOMS id type xs ys zs
1 1 0.047473 0.345283 0.468505
2 1 0.0508217 0.383452 0.707165
3 1 0.0686873 0.241557 0.69886
4 1 0.0878859 0.320403 0.570035
5 1 0.101874 0.52678 0.66686
6 1 0.123028 0.599837 0.791618
7 1 0.14422 0.464379 0.844453
8 1 0.16717 0.526476 0.776988
9 1 0.18454 0.464039 0.627782
10 1 0.207772 0.570112 0.558092
11 1 0.231929 0.582636 0.464922
12 1 0.246201 0.549592 0.316079
13 1 0.265128 0.57406 0.206612
14 1 0.286413 0.720382 0.180642
15 1 0.312025 0.711619 0.135205
16 1 0.325721 0.467342 0.106532
17 1 0.346589 0.471067 0.27347
18 1 0.356411 0.554908 0.498437
19 1 0.382634 0.528132 0.46914
20 1 0.404716 0.41348 0.491185
21 1 0.426327 0.497452 0.480647
22 1 0.442853 0.447028 0.602256
23 1 0.46334 0.499607 0.681044
24 1 0.48519 0.479954 0.573368
25 1 0.500482 0.617117 0.453062
26 1 0.518069 0.644727 0.397757
27 1 0.530548 0.498767 0.382857
28 1 0.559892 0.564077 0.393337
29 1 0.586884 0.559235 0.462148
30 1 0.594575 0.31482 0.525439
31 1 0.616465 0.501533 0.462512
32 1 0.629094 0.65138 0.566948
33 1 0.627069 0.502326 0.67218
34 1 0.641688 0.559718 0.480547
35 1 0.663077 0.501869 0.494696
36 1 0.685684 0.511117 0.432663
37 1 0.70423 0.396472 0.477323
38 1 0.725214 0.501686 0.366285
39 1 0.751345 0.450316 0.429866
40 1 0.771997 0.534887 0.404523
41 1 0.789735 0.496322 0.545895
42 1 0.809928 0.466068 0.689246
43 1 0.82595 0.534509 0.600085
44 1 0.846595 0.483897 0.558935
45 1 0.87011 0.463049 0.665305
46 1 0.89079 0.423847 0.523412
47 1 0.908629 0.484081 0.509943
48 1 0.924905 0.358634 0.418896
49 1 0.928981 0.508936 0.546964
50 1 0.939117 0.531029 0.349281
ITEM: TIMESTEP
600
ITEM: NUMBER OF ATOMS
50
ITEM: BOX BOUNDS pp pp pp
0.0000000000000000e+00 5.1530000000000001e+01
0.0000000000000000e+00 5.0000000000000000e+00
0.0000000000000000e+00 5.0000000000000000e+00
ITEM: ATOMS id type xs ys zs
1 1 0.0571773 0.34567 0.521483
2 1 0.0582178 0.350973 0.773783
3 1 0.0784346 0.178363 0.683027
4 1 0.0892514 0.395049 0.601623
5 1 0.108921 0.45454 0.670605
6 1 0.122181 0.611875 0.787701
7 1 0.145243 0.531888 0.868686
8 1 0.166934 0.427312 0.77314
9 1 0.188783 0.488238 0.726403
10 1 0.192026 0.582574 0.456207
11 1 0.220827 0.535642 0.38793
12 1 0.243855 0.660466 0.376
13 1 0.266661 0.607299 0.263975
14 1 0.287934 0.684524 0.174956
15 1 0.307145 0.617719 0.0722561
16 1 0.327685 0.527641 0.108485
17 1 0.343853 0.523377 0.224138
18 1 0.361065 0.556885 0.383306
19 1 0.383372 0.525044 0.505513
20 1 0.399212 0.389724 0.46669
21 1 0.424811 0.505187 0.492761
22 1 0.446203 0.462977 0.592061
23 1 0.467075 0.530774 0.717843
24 1 0.479246 0.466534 0.524007
25 1 0.500334 0.633374 0.529442
26 1 0.52654 0.590501 0.402982
27 1 0.548888 0.498184 0.386501
28 1 0.565668 0.63253 0.371732
29 1 0.579848 0.509962 0.387478
30 1 0.593801 0.389397 0.520431
31 1 0.612822 0.537913 0.504364
32 1 0.627234 0.647925 0.505692
33 1 0.638627 0.463225 0.627058
34 1 0.640938 0.579319 0.468602
35 1 0.665368 0.47823 0.491646
36 1 0.690819 0.483999 0.526226
37 1 0.706472 0.363188 0.537131
38 1 0.715165 0.500775 0.384425
39 1 0.741425 0.529603 0.339583
40 1 0.766273 0.502604 0.425977
41 1 0.78865 0.541759 0.569612
42 1 0.807864 0.401547 0.658947
43 1 0.831057 0.543848 0.606702
44 1 0.852002 0.37612 0.614446
45 1 0.86466 0.585002 0.634449
46 1 0.884897 0.410872 0.551899
47 1 0.907711 0.424953 0.542369
48 1 0.924886 0.385327 0.375335
49 1 0.923757 0.502513 0.538285
50 1 0.928183 0.527053 0.346105
ITEM: TIMESTEP
700
ITEM: NUMBER OF ATOMS
50
ITEM: BOX BOUNDS pp pp pp
0.0000000000000000e+00 5.1530000000000001e+01
0.0000000000000000e+00 5.0000000000000000e+00
0.0000000000000000e+00 5.0000000000000000e+00
ITEM: ATOMS id type xs ys zs
1 1 0.0670974 0.347585 0.583094
2 1 0.0708423 0.267065 0.816997
3 1 0.0873232 0.198142 0.666856
4 1 0.0926778 0.447283 0.667323
5 1 0.114508 0.387295 0.684755
6 1 0.128602 0.573598 0.795774
7 1 0.150011 0.582162 0.806724
8 1 0.166067 0.40378 0.767434
9 1 0.181563 0.544901 0.668146
10 1 0.198991 0.502174 0.500966
11 1 0.209459 0.628073 0.347853
12 1 0.233823 0.633889 0.372468
13 1 0.26203 0.704734 0.360358
14 1 0.280783 0.60756 0.201663
15 1 0.299136 0.530689 0.0280878
16 1 0.325012 0.594155 0.0833637
17 1 0.346691 0.59145 0.241874
18 1 0.374176 0.529073 0.254258
19 1 0.381642 0.513168 0.504047
20 1 0.402128 0.47179 0.448981
21 1 0.425876 0.38572 0.595438
22 1 0.441432 0.577777 0.535016
23 1 0.464814 0.503311 0.668884
24 1 0.483963 0.552024 0.528148
25 1 0.503599 0.521284 0.498609
26 1 0.528311 0.534939 0.491384
27 1 0.55107 0.570972 0.38792
28 1 0.56607 0.658787 0.334374
29 1 0.580252 0.506316 0.322737
30 1 0.590902 0.381468 0.540713
31 1 0.608528 0.575495 0.542226
32 1 0.633887 0.601111 0.484724
33 1 0.647974 0.450708 0.607758
34 1 0.651073 0.601815 0.401089
35 1 0.66576 0.511299 0.498563
36 1 0.687934 0.463047 0.59429
37 1 0.71061 0.359917 0.560945
38 1 0.721152 0.481639 0.412686
39 1 0.740472 0.575585 0.35623
40 1 0.755174 0.509893 0.520964
41 1 0.781593 0.478259 0.511659
42 1 0.807118 0.523712 0.520015
43 1 0.827238 0.356095 0.649976
44 1 0.854392 0.400852 0.684888
45 1 0.860699 0.598333 0.552593
46 1 0.881975 0.462202 0.603322
47 1 0.904785 0.394962 0.522697
48 1 0.922059 0.438994 0.381114
49 1 0.911839 0.458421 0.554828
50 1 0.916885 0.506497 0.335188
ITEM: TIMESTEP
800
ITEM: NUMBER OF ATOMS
50
ITEM: BOX BOUNDS pp pp pp
0.0000000000000000e+00 5.1530000000000001e+01
0.0000000000000000e+00 5.0000000000000000e+00
0.0000000000000000e+00 5.0000000000000000e+00
ITEM: ATOMS id type xs ys zs
1 1 0.0763137 0.346318 0.655735
2 1 0.0822947 0.209401 0.829425
3 1 0.0965748 0.249684 0.672756
4 1 0.0970895 0.460611 0.729337
5 1 0.118953 0.333783 0.703237
6 1 0.135359 0.52316 0.78902
7 1 0.153376 0.614053 0.743164
8 1 0.169132 0.416999 0.747167
9 1 0.180002 0.544341 0.548278
10 1 0.202589 0.52298 0.542246
11 1 0.209251 0.657669 0.411277
12 1 0.230421 0.650828 0.343112
13 1 0.253979 0.650827 0.313236
14 1 0.272028 0.564753 0.235899
15 1 0.297199 0.562735 0.167877
16 1 0.323394 0.598996 0.152774
17 1 0.346859 0.60234 0.129151
18 1 0.36814 0.548278 0.232409
19 1 0.386181 0.488767 0.40267
20 1 0.406596 0.527399 0.501456
21 1 0.424786 0.404941 0.598909
22 1 0.437223 0.557745 0.558087
23 1 0.461427 0.527275 0.518584
24 1 0.487779 0.592417 0.558536
25 1 0.50548 0.457342 0.498392
26 1 0.529855 0.456489 0.548817
27 1 0.544686 0.676903 0.419379
28 1 0.565101 0.655909 0.270867
29 1 0.58562 0.491591 0.298736
30 1 0.594321 0.455501 0.549447
31 1 0.608425 0.565106 0.55376
32 1 0.632907 0.533027 0.482418
33 1 0.653657 0.475218 0.544324
34 1 0.65649 0.614878 0.354126
35 1 0.671687 0.541138 0.53539
36 1 0.685565 0.347595 0.671814
37 1 0.707895 0.453537 0.5613
38 1 0.729729 0.423945 0.448773
39 1 0.744641 0.618541 0.403395
40 1 0.759271 0.512878 0.563712
41 1 0.781647 0.467993 0.482064
42 1 0.802155 0.436949 0.511614
43 1 0.8225 0.408344 0.588428
44 1 0.840367 0.435409 0.664213
45 1 0.861537 0.502569 0.557045
46 1 0.881607 0.523789 0.603324
47 1 0.897835 0.397588 0.460668
48 1 0.914673 0.465848 0.386785
49 1 0.899108 0.455941 0.59107
50 1 0.906294 0.469671 0.365798
ITEM: TIMESTEP
900
ITEM: NUMBER OF ATOMS
50
ITEM: BOX BOUNDS pp pp pp
0.0000000000000000e+00 5.1530000000000001e+01
0.0000000000000000e+00 5.0000000000000000e+00
0.0000000000000000e+00 5.0000000000000000e+00
ITEM: ATOMS id type xs ys zs
1 1 0.085443 0.327857 0.725019
2 1 0.0921756 0.160352 0.836156
3 1 0.104686 0.264175 0.667902
4 1 0.105796 0.485011 0.786469
5 1 0.119873 0.341618 0.735857
6 1 0.141289 0.463529 0.775689
7 1 0.155117 0.628392 0.688649
8 1 0.173558 0.473524 0.700255
9 1 0.179087 0.480848 0.449328
10 1 0.198621 0.531703 0.634552
11 1 0.211664 0.713363 0.468288
12 1 0.229907 0.677518 0.280802
13 1 0.252358 0.569513 0.236221
14 1 0.275939 0.54395 0.235163
15 1 0.298892 0.633831 0.351219
16 1 0.320754 0.57278 0.22392
17 1 0.341253 0.577024 0.100525
18 1 0.361735 0.557911 0.236074
19 1 0.387902 0.514231 0.267943
20 1 0.402538 0.539479 0.505952
21 1 0.42149 0.442262 0.589163
22 1 0.443934 0.544739 0.546671
23 1 0.462423 0.608886 0.426844
24 1 0.48451 0.519896 0.545635
25 1 0.508849 0.456564 0.546404
26 1 0.528344 0.51782 0.509424
27 1 0.544292 0.629229 0.43207
28 1 0.560694 0.602059 0.307454
29 1 0.581076 0.540496 0.340552
30 1 0.594812 0.49206 0.487338
31 1 0.611712 0.593427 0.56975
32 1 0.634051 0.448767 0.486313
33 1 0.657213 0.491326 0.504981
34 1 0.667454 0.611859 0.358734
35 1 0.672621 0.512554 0.55541
36 1 0.688763 0.417118 0.62164
37 1 0.708731 0.42856 0.57669
38 1 0.729219 0.441778 0.517202
39 1 0.745541 0.610891 0.466647
40 1 0.762489 0.517388 0.604457
41 1 0.781759 0.494722 0.429002
42 1 0.794851 0.287404 0.523
43 1 0.815495 0.486966 0.488722
44 1 0.837146 0.515757 0.643444
45 1 0.863758 0.396607 0.595857
46 1 0.878423 0.563004 0.606251
47 1 0.884862 0.378377 0.44598
48 1 0.906592 0.516959 0.448925
49 1 0.891889 0.430456 0.588573
50 1 0.89842 0.445462 0.330885
ITEM: TIMESTEP
1000
ITEM: NUMBER OF ATOMS
50
ITEM: BOX BOUNDS pp pp pp
0.0000000000000000e+00 5.1530000000000001e+01
0.0000000000000000e+00 5.0000000000000000e+00
0.0000000000000000e+00 5.0000000000000000e+00
ITEM: ATOMS id type xs ys zs
1 1 0.0940274 0.335419 0.787437
2 1 0.104961 0.110809 0.823126
3 1 0.111439 0.304379 0.716504
4 1 0.110892 0.495281 0.830478
5 1 0.12642 0.328329 0.759807
6 1 0.148445 0.4015 0.750217
7 1 0.155735 0.619794 0.644569
8 1 0.174654 0.529895 0.636017
9 1 0.185916 0.436827 0.441362
10 1 0.195111 0.623294 0.56702
11 1 0.217506 0.656242 0.467985
12 1 0.233298 0.638884 0.316256
13 1 0.253919 0.563816 0.214758
14 1 0.276256 0.586385 0.289008
15 1 0.298354 0.624575 0.406208
16 1 0.316148 0.575952 0.300758
17 1 0.338458 0.530306 0.220954
18 1 0.361602 0.537716 0.183255
19 1 0.38115 0.627213 0.267845
20 1 0.400133 0.482079 0.400561
21 1 0.419509 0.601697 0.487215
22 1 0.446959 0.469225 0.51674
23 1 0.46241 0.612255 0.439432
24 1 0.478697 0.483889 0.482393
25 1 0.500449 0.450191 0.596238
26 1 0.522804 0.529512 0.509974
27 1 0.544062 0.676541 0.465577
28 1 0.556271 0.523897 0.251983
29 1 0.578372 0.600972 0.388374
30 1 0.603646 0.551374 0.385247
31 1 0.620233 0.545751 0.629509
32 1 0.635442 0.415032 0.504954
33 1 0.656034 0.509244 0.449645
34 1 0.676125 0.603079 0.365471
35 1 0.666756 0.519113 0.559646
36 1 0.688721 0.467672 0.609297
37 1 0.712312 0.328491 0.583135
38 1 0.73327 0.489371 0.60265
39 1 0.750668 0.625006 0.51767
40 1 0.767544 0.522461 0.586499
41 1 0.780707 0.471118 0.454424
42 1 0.798355 0.322891 0.480291
43 1 0.816548 0.457044 0.537266
44 1 0.835095 0.463669 0.473942
45 1 0.851955 0.408136 0.668206
46 1 0.869898 0.570037 0.581437
47 1 0.878502 0.409526 0.441613
48 1 0.897757 0.562471 0.445773
49 1 0.878246 0.380709 0.571441
50 1 0.888225 0.420932 0.389835
ITEM: TIMESTEP
1100
ITEM: NUMBER OF ATOMS
50
ITEM: BOX BOUNDS pp pp pp
0.0000000000000000e+00 5.1530000000000001e+01
0.0000000000000000e+00 5.0000000000000000e+00
0.0000000000000000e+00 5.0000000000000000e+00
ITEM: ATOMS id type xs ys zs
12 1 0.239601 0.531788 0.389709
13 1 0.256837 0.637007 0.197324
14 1 0.27446 0.631817 0.360284
16 1 0.313045 0.573801 0.364547
17 1 0.340756 0.488875 0.335297
18 1 0.361113 0.5554 0.194911
19 1 0.378758 0.610139 0.28063
28 1 0.561113 0.573428 0.361653
37 1 0.713276 0.391467 0.63028
42 1 0.805022 0.325934 0.453126
7 1 0.15386 0.587516 0.613214
8 1 0.176769 0.579988 0.567909
9 1 0.19459 0.457847 0.448857
10 1 0.197159 0.669194 0.448243
11 1 0.218593 0.575228 0.466686
15 1 0.294129 0.606507 0.449653
20 1 0.403443 0.570486 0.302808
21 1 0.42068 0.644615 0.302133
22 1 0.436036 0.490458 0.471683
23 1 0.457368 0.570723 0.468197
24 1 0.476309 0.447785 0.445274
25 1 0.497598 0.491801 0.584814
26 1 0.517258 0.58048 0.527138
29 1 0.584001 0.581243 0.361736
30 1 0.600914 0.624407 0.434512
31 1 0.622424 0.499996 0.535883
32 1 0.640172 0.413096 0.516042
33 1 0.654666 0.548955 0.355183
34 1 0.6814 0.559941 0.396692
35 1 0.668512 0.496717 0.600767
36 1 0.69011 0.459069 0.575999
38 1 0.733681 0.494997 0.629978
39 1 0.747149 0.641726 0.581699
40 1 0.770925 0.514495 0.63787
41 1 0.78288 0.450563 0.421454
43 1 0.822742 0.423011 0.578166
44 1 0.837977 0.387416 0.414389
46 1 0.858444 0.549556 0.573514
47 1 0.865434 0.381168 0.426713
49 1 0.867579 0.411637 0.590149
50 1 0.882952 0.425515 0.343291
48 1 0.884138 0.553124 0.527486
27 1 0.535478 0.571996 0.430274
1 1 0.106045 0.293276 0.864708
2 1 0.115565 0.0703783 0.80945
3 1 0.119532 0.340925 0.729485
5 1 0.133186 0.345485 0.783964
4 1 0.119574 0.523052 0.891368
6 1 0.152512 0.367071 0.719165
45 1 0.834232 0.478903 0.605692
ITEM: TIMESTEP
1200
ITEM: NUMBER OF ATOMS
50
ITEM: BOX BOUNDS pp pp pp
0.0000000000000000e+00 5.1530000000000001e+01
0.0000000000000000e+00 5.0000000000000000e+00
0.0000000000000000e+00 5.0000000000000000e+00
ITEM: ATOMS id type xs ys zs
12 1 0.242502 0.499546 0.397488
13 1 0.253228 0.643234 0.264966
14 1 0.273593 0.666144 0.415384
16 1 0.316486 0.539397 0.441122
17 1 0.340142 0.508155 0.408007
18 1 0.354075 0.57621 0.269026
19 1 0.376786 0.533626 0.302922
28 1 0.561432 0.596428 0.465755
37 1 0.709331 0.492748 0.703369
42 1 0.809526 0.392648 0.445208
7 1 0.156814 0.549193 0.569796
8 1 0.180049 0.606577 0.487928
9 1 0.198394 0.502856 0.493396
10 1 0.204449 0.680345 0.335234
11 1 0.220553 0.531003 0.426545
15 1 0.296081 0.589083 0.487823
20 1 0.402775 0.677719 0.192626
21 1 0.426043 0.675541 0.176404
22 1 0.428336 0.563308 0.360323
23 1 0.44909 0.472392 0.502885
24 1 0.473657 0.451453 0.404066
25 1 0.491965 0.528807 0.572376
26 1 0.516156 0.603869 0.514036
29 1 0.585321 0.552196 0.348938
30 1 0.601586 0.651876 0.498365
31 1 0.621998 0.48716 0.409751
32 1 0.643928 0.469245 0.490404
33 1 0.657125 0.554729 0.306182
34 1 0.677578 0.509754 0.421106
35 1 0.672262 0.47052 0.654903
36 1 0.694191 0.433592 0.526535
38 1 0.7343 0.472153 0.612857
39 1 0.753306 0.616792 0.723262
40 1 0.769801 0.540359 0.5454
41 1 0.787415 0.408449 0.49152
43 1 0.827157 0.376837 0.595427
44 1 0.837699 0.338783 0.38806
46 1 0.842293 0.540255 0.575364
47 1 0.859838 0.406468 0.444084
49 1 0.851606 0.354728 0.528897
50 1 0.871782 0.442235 0.425301
48 1 0.872025 0.555015 0.520607
27 1 0.536593 0.529663 0.424548
1 1 0.118913 0.27005 0.947844
2 1 0.128598 0.0944397 0.754828
3 1 0.126507 0.339707 0.803805
5 1 0.138255 0.334346 0.80867
4 1 0.126833 0.534895 0.934224
6 1 0.158145 0.325753 0.682565
45 1 0.823482 0.509717 0.499871
ITEM: TIMESTEP
1300
ITEM: NUMBER OF ATOMS
50
ITEM: BOX BOUNDS pp pp pp
0.0000000000000000e+00 5.1530000000000001e+01
0.0000000000000000e+00 5.0000000000000000e+00
0.0000000000000000e+00 5.0000000000000000e+00
ITEM: ATOMS id type xs ys zs
12 1 0.246921 0.456303 0.44764
13 1 0.253173 0.651863 0.367451
14 1 0.272287 0.687817 0.450524
16 1 0.316258 0.512074 0.531936
17 1 0.340868 0.519555 0.47344
18 1 0.359349 0.581324 0.33354
19 1 0.381571 0.580791 0.244568
28 1 0.55899 0.533784 0.462284
37 1 0.710506 0.52917 0.667649
42 1 0.813694 0.444484 0.456119
7 1 0.162925 0.491029 0.535103
8 1 0.18124 0.632 0.417006
9 1 0.201743 0.589971 0.493722
10 1 0.208501 0.666544 0.256956
11 1 0.22321 0.482993 0.364986
15 1 0.294184 0.581372 0.486931
20 1 0.400268 0.686083 0.14761
21 1 0.419056 0.677601 0.110943
22 1 0.429476 0.607089 0.292091
23 1 0.445432 0.420109 0.416506
24 1 0.467523 0.505212 0.489418
25 1 0.488422 0.55644 0.462942
26 1 0.514743 0.536953 0.456608
29 1 0.581408 0.620869 0.494931
30 1 0.603489 0.548787 0.463281
31 1 0.621613 0.53404 0.310084
32 1 0.641877 0.542825 0.448272
33 1 0.658697 0.542587 0.299137
34 1 0.673961 0.476815 0.430197
35 1 0.6789 0.43874 0.685897
36 1 0.698521 0.4497 0.549683
38 1 0.732293 0.523387 0.691946
39 1 0.755691 0.543567 0.722463
40 1 0.76921 0.536589 0.557145
41 1 0.790215 0.414193 0.532547
43 1 0.828991 0.344857 0.610431
44 1 0.834411 0.338466 0.381447
46 1 0.829507 0.510758 0.520613
47 1 0.843377 0.34228 0.426216
49 1 0.846057 0.390165 0.57684
50 1 0.865188 0.473138 0.456079
48 1 0.858018 0.55382 0.56448
27 1 0.538478 0.574281 0.510159
1 1 0.134456 0.204545 0.978834
2 1 0.138522 0.12246 0.748311
3 1 0.133059 0.335362 0.843028
5 1 0.143863 0.369175 0.838517
4 1 0.136312 0.542123 0.971632
6 1 0.158784 0.309748 0.6648
45 1 0.814762 0.486164 0.357056
ITEM: TIMESTEP
1400
ITEM: NUMBER OF ATOMS
50
ITEM: BOX BOUNDS pp pp pp
0.0000000000000000e+00 5.1530000000000001e+01
0.0000000000000000e+00 5.0000000000000000e+00
0.0000000000000000e+00 5.0000000000000000e+00
ITEM: ATOMS id type xs ys zs
12 1 0.245636 0.416084 0.454402
13 1 0.251492 0.664951 0.441351
14 1 0.27347 0.683366 0.490473
16 1 0.319436 0.505234 0.577234
17 1 0.339714 0.575855 0.464284
18 1 0.365707 0.534323 0.460576
19 1 0.374901 0.610297 0.222116
28 1 0.556045 0.546955 0.516867
37 1 0.712083 0.60075 0.663951
42 1 0.802997 0.351663 0.381792
7 1 0.169043 0.443067 0.50662
8 1 0.181895 0.624561 0.370807
9 1 0.204325 0.703877 0.459565
10 1 0.213381 0.585998 0.236428
11 1 0.229077 0.480195 0.332073
15 1 0.297261 0.576229 0.511818
20 1 0.392724 0.723569 0.101439
21 1 0.418471 0.65327 0.0700815
22 1 0.435641 0.612719 0.241245
23 1 0.451747 0.462457 0.347547
24 1 0.465046 0.546675 0.503316
25 1 0.482748 0.536872 0.385252
26 1 0.50956 0.506986 0.43246
29 1 0.580821 0.605166 0.555035
30 1 0.602315 0.522342 0.417979
31 1 0.618783 0.549887 0.283667
32 1 0.639388 0.604607 0.3952
33 1 0.659861 0.533729 0.295931
34 1 0.670031 0.437866 0.467753
35 1 0.684045 0.421522 0.699447
36 1 0.698642 0.421385 0.507708
38 1 0.735361 0.575033 0.78471
39 1 0.756178 0.464837 0.730508
40 1 0.768577 0.492326 0.55607
41 1 0.793675 0.512704 0.599612
43 1 0.813124 0.284021 0.577263
44 1 0.829887 0.358165 0.409863
46 1 0.826342 0.588265 0.514585
47 1 0.839983 0.378348 0.495281
49 1 0.846454 0.308813 0.579239
50 1 0.857842 0.489507 0.487639
48 1 0.847599 0.580293 0.492404
27 1 0.533975 0.567431 0.536664
1 1 0.147911 0.145138 0.9811
2 1 0.147799 0.164358 0.775079
3 1 0.140471 0.349209 0.880113
5 1 0.150105 0.387976 0.850444
4 1 0.143381 0.544763 0.00742351
6 1 0.159644 0.295266 0.633808
45 1 0.815405 0.471089 0.313775
ITEM: TIMESTEP
1500
ITEM: NUMBER OF ATOMS
50
ITEM: BOX BOUNDS pp pp pp
0.0000000000000000e+00 5.1530000000000001e+01
0.0000000000000000e+00 5.0000000000000000e+00
0.0000000000000000e+00 5.0000000000000000e+00
ITEM: ATOMS id type xs ys zs
12 1 0.248603 0.408302 0.49997
13 1 0.256011 0.629781 0.57283
14 1 0.277711 0.598125 0.499638
16 1 0.322616 0.558302 0.549772
17 1 0.341687 0.581133 0.504393
18 1 0.364652 0.554206 0.454216
19 1 0.374018 0.650218 0.258392
28 1 0.550777 0.614417 0.604537
37 1 0.720149 0.5918 0.660103
42 1 0.792188 0.373146 0.370713
7 1 0.178627 0.413971 0.451676
8 1 0.186622 0.608208 0.374725
9 1 0.204365 0.752537 0.335876
10 1 0.210628 0.561583 0.248015
11 1 0.235473 0.49986 0.266732
15 1 0.301351 0.606463 0.563214
20 1 0.386236 0.678858 0.110832
21 1 0.414249 0.642959 0.112061
22 1 0.437079 0.609629 0.150051
23 1 0.454944 0.529317 0.25884
24 1 0.468221 0.605907 0.477106
25 1 0.487786 0.474936 0.356567
26 1 0.507021 0.552779 0.471459
29 1 0.569971 0.455737 0.527552
30 1 0.593557 0.577493 0.393502
31 1 0.614522 0.573002 0.308702
32 1 0.63711 0.656375 0.303526
33 1 0.659618 0.518087 0.339278
34 1 0.668194 0.409323 0.519389
35 1 0.685657 0.40032 0.674364
36 1 0.70366 0.47124 0.530275
38 1 0.733707 0.58579 0.800856
39 1 0.751033 0.444668 0.746955
40 1 0.770574 0.479577 0.603705
41 1 0.791385 0.467621 0.506398
43 1 0.804568 0.224346 0.542009
44 1 0.822309 0.36441 0.498528
46 1 0.825612 0.569818 0.483782
47 1 0.82577 0.357817 0.567574
49 1 0.846349 0.320068 0.550049
50 1 0.85223 0.591719 0.494924
48 1 0.840579 0.539039 0.470669
27 1 0.532359 0.50646 0.477173
1 1 0.162315 0.0942517 0.0165601
2 1 0.154567 0.160432 0.813246
3 1 0.147979 0.34869 0.903807
5 1 0.156909 0.393706 0.858705
4 1 0.151793 0.547517 0.0344787
6 1 0.161395 0.349852 0.588898
45 1 0.815265 0.49621 0.293379
ITEM: TIMESTEP
1600
ITEM: NUMBER OF ATOMS
50
ITEM: BOX BOUNDS pp pp pp
0.0000000000000000e+00 5.1530000000000001e+01
0.0000000000000000e+00 5.0000000000000000e+00
0.0000000000000000e+00 5.0000000000000000e+00
ITEM: ATOMS id type xs ys zs
12 1 0.249274 0.478263 0.486589
13 1 0.261353 0.545857 0.651916
14 1 0.280906 0.533862 0.546158
16 1 0.322964 0.611687 0.506957
17 1 0.34648 0.587354 0.587005
18 1 0.366859 0.537193 0.444872
19 1 0.377302 0.724399 0.271653
28 1 0.546931 0.567168 0.632299
37 1 0.727307 0.60317 0.651864
42 1 0.784469 0.299571 0.311531
7 1 0.183523 0.392362 0.440228
8 1 0.192483 0.597258 0.355742
9 1 0.206757 0.749399 0.219549
10 1 0.216317 0.57028 0.252935
11 1 0.236883 0.495329 0.296996
15 1 0.299486 0.630827 0.621427
20 1 0.388303 0.620286 0.104253
21 1 0.413174 0.623291 0.18918
22 1 0.432422 0.594657 0.07843
23 1 0.452563 0.678528 0.173299
24 1 0.474212 0.605033 0.338907
25 1 0.496689 0.461184 0.408705
26 1 0.509352 0.554311 0.483878
29 1 0.559321 0.489864 0.461367
30 1 0.583884 0.546627 0.403849
31 1 0.60652 0.612861 0.357472
32 1 0.631283 0.623219 0.244378
33 1 0.651848 0.544491 0.397733
34 1 0.665287 0.391755 0.555375
35 1 0.687283 0.385282 0.635278
36 1 0.706022 0.493056 0.536832
38 1 0.737988 0.588074 0.860733
39 1 0.747038 0.466886 0.655775
40 1 0.774662 0.445187 0.75686
41 1 0.783944 0.462105 0.490576
43 1 0.794755 0.232574 0.458721
44 1 0.805595 0.413931 0.530171
46 1 0.825643 0.529809 0.481694