ITEM: TIMESTEP
0
ITEM: NUMBER OF ATOMS
50
ITEM: BOX BOUNDS pp pp pp
0.0000000000000000e+00 5.1530000000000001e+01
0.0000000000000000e+00 5.0000000000000000e+00
0.0000000000000000e+00 5.0000000000000000e+00
ITEM: ATOMS id type xs ys zs
1 1 0.0388123 0.5 0.5
2 1 0.0576363 0.5 0.5
3 1 0.0764603 0.5 0.5
4 1 0.0952843 0.5 0.5
5 1 0.114108 0.5 0.5
6 1 0.132932 0.5 0.5
7 1 0.151756 0.5 0.5
8 1 0.17058 0.5 0.5
9 1 0.189404 0.5 0.5
10 1 0.208228 0.5 0.5
11 1 0.227052 0.5 0.5
12 1 0.245876 0.5 0.5
13 1 0.2647 0.5 0.5
14 1 0.283524 0.5 0.5
15 1 0.302348 0.5 0.5
16 1 0.321172 0.5 0.5
17 1 0.339996 0.5 0.5
18 1 0.35882 0.5 0.5
19 1 0.377644 0.5 0.5
20 1 0.396468 0.5 0.5
21 1 0.415292 0.5 0.5
22 1 0.434116 0.5 0.5
23 1 0.45294 0.5 0.5
24 1 0.471764 0.5 0.5
25 1 0.490588 0.5 0.5
26 1 0.509412 0.5 0.5
27 1 0.528236 0.5 0.5
28 1 0.54706 0.5 0.5
29 1 0.565884 0.5 0.5
30 1 0.584708 0.5 0.5
31 1 0.603532 0.5 0.5
32 1 0.622356 0.5 0.5
33 1 0.64118 0.5 0.5
34 1 0.660004 0.5 0.5
35 1 0.678828 0.5 0.5
36 1 0.697652 0.5 0.5
37 1 0.716476 0.5 0.5
38 1 0.7353 0.5 0.5
39 1 0.754124 0.5 0.5
40 1 0.772948 0.5 0.5
41 1 0.791772 0.5 0.5
42 1 0.810596 0.5 0.5
43 1 0.82942 0.5 0.5
44 1 0.848244 0.5 0.5
45 1 0.867068 0.5 0.5
46 1 0.885892 0.5 0.5
47 1 0.904716 0.5 0.5
48 1 0.92354 0.5 0.5
49 1 0.942364 0.5 0.5
50 1 0.961188 0.5 0.5
ITEM: TIMESTEP
100
ITEM: NUMBER OF ATOMS
50
ITEM: BOX BOUNDS pp pp pp
0.0000000000000000e+00 5.1530000000000001e+01
0.0000000000000000e+00 5.0000000000000000e+00
0.0000000000000000e+00 5.0000000000000000e+00
ITEM: ATOMS id type xs ys zs
1 1 0.0255313 0.451327 0.456555
2 1 0.049315 0.466434 0.432241
3 1 0.070188 0.48988 0.585453
4 1 0.0939662 0.526579 0.616965
5 1 0.113296 0.421514 0.598348
6 1 0.133585 0.483853 0.55308
7 1 0.153259 0.480489 0.462492
8 1 0.172266 0.591402 0.511866
9 1 0.191625 0.490135 0.64976
10 1 0.209011 0.556726 0.450769
11 1 0.227509 0.399519 0.557849
12 1 0.244163 0.522163 0.407799
13 1 0.266827 0.596036 0.497548
14 1 0.284648 0.468998 0.331943
15 1 0.304669 0.586804 0.38946
16 1 0.321569 0.52857 0.506367
17 1 0.342307 0.522988 0.506737
18 1 0.361062 0.408082 0.447982
19 1 0.37987 0.465139 0.513642
20 1 0.396024 0.614717 0.48345
21 1 0.413785 0.438003 0.524035
22 1 0.435016 0.460676 0.492209
23 1 0.456386 0.490457 0.500998
24 1 0.476673 0.542218 0.636962
25 1 0.491788 0.47079 0.433716
26 1 0.513691 0.602051 0.388165
27 1 0.529752 0.479541 0.578022
28 1 0.549959 0.521027 0.418431
29 1 0.567033 0.418879 0.578994
30 1 0.586968 0.555843 0.431155
31 1 0.607171 0.431377 0.530831
32 1 0.623101 0.649204 0.460435
33 1 0.636114 0.397 0.579928
34 1 0.654816 0.574198 0.515249
35 1 0.675886 0.408981 0.498005
36 1 0.694752 0.597221 0.448161
37 1 0.712959 0.414717 0.511868
38 1 0.731363 0.554857 0.424767
39 1 0.753142 0.50509 0.480497
40 1 0.772147 0.396046 0.567908
41 1 0.792132 0.538168 0.520011
42 1 0.815656 0.480904 0.412908
43 1 0.83073 0.587996 0.626584
44 1 0.845904 0.383892 0.527053
45 1 0.862769 0.615005 0.503175
46 1 0.886441 0.506183 0.41778
47 1 0.902725 0.359435 0.576127
48 1 0.921597 0.525653 0.52907
49 1 0.945988 0.488657 0.46273
50 1 0.972866 0.534576 0.463921
ITEM: TIMESTEP
200
ITEM: NUMBER OF ATOMS
50
ITEM: BOX BOUNDS pp pp pp
0.0000000000000000e+00 5.1530000000000001e+01
0.0000000000000000e+00 5.0000000000000000e+00
0.0000000000000000e+00 5.0000000000000000e+00
ITEM: ATOMS id type xs ys zs
1 1 0.0200595 0.418157 0.419907
2 1 0.0437516 0.448193 0.456161
3 1 0.063198 0.49141 0.599487
4 1 0.0860365 0.49553 0.684868
5 1 0.108586 0.391418 0.679417
6 1 0.134317 0.466104 0.586506
7 1 0.158027 0.501466 0.459428
8 1 0.176119 0.591667 0.541557
9 1 0.195052 0.5521 0.644999
10 1 0.2108 0.525275 0.525304
11 1 0.229111 0.410673 0.512654
12 1 0.24532 0.528002 0.425699
13 1 0.264465 0.579678 0.388793
14 1 0.28199 0.527492 0.277046
15 1 0.301752 0.624644 0.313705
16 1 0.318739 0.563698 0.49427
17 1 0.34429 0.514314 0.504567
18 1 0.363167 0.360098 0.432583
19 1 0.383545 0.448197 0.503295
20 1 0.399822 0.626802 0.494519
21 1 0.41153 0.450206 0.520788
22 1 0.436129 0.436742 0.497042
23 1 0.461666 0.483876 0.514008
24 1 0.484491 0.537164 0.636304
25 1 0.494596 0.536073 0.452487
26 1 0.513022 0.569247 0.406157
27 1 0.531384 0.53561 0.49584
28 1 0.551766 0.487636 0.46865
29 1 0.56962 0.44844 0.520297
30 1 0.589567 0.505245 0.473222
31 1 0.606639 0.461675 0.503406
32 1 0.624178 0.644407 0.47682
33 1 0.634118 0.435053 0.599631
34 1 0.653045 0.52314 0.538024
35 1 0.67168 0.471696 0.483205
36 1 0.690035 0.541366 0.448454
37 1 0.709006 0.457465 0.466763
38 1 0.729501 0.53138 0.419009
39 1 0.75258 0.489381 0.476404
40 1 0.775337 0.417194 0.562242
41 1 0.795578 0.481257 0.522875
42 1 0.815494 0.530105 0.444467
43 1 0.82899 0.574216 0.642651
44 1 0.847539 0.444739 0.561843
45 1 0.864845 0.532334 0.46111
46 1 0.882692 0.48872 0.495875
47 1 0.902967 0.406577 0.527421
48 1 0.92695 0.458062 0.52557
49 1 0.946604 0.518191 0.477961
50 1 0.970306 0.537883 0.436712
ITEM: TIMESTEP
300
ITEM: NUMBER OF ATOMS
50
ITEM: BOX BOUNDS pp pp pp
0.0000000000000000e+00 5.1530000000000001e+01
0.0000000000000000e+00 5.0000000000000000e+00
0.0000000000000000e+00 5.0000000000000000e+00
ITEM: ATOMS id type xs ys zs
1 1 0.0215504 0.399432 0.39697
2 1 0.0411111 0.441756 0.526336
3 1 0.0639846 0.490252 0.594917
4 1 0.0864209 0.388095 0.683948
5 1 0.108106 0.508842 0.670284
6 1 0.128259 0.395173 0.596123
7 1 0.14803 0.535825 0.567159
8 1 0.173485 0.556737 0.539506
9 1 0.19461 0.613103 0.693847
10 1 0.212474 0.525559 0.544978
11 1 0.230047 0.335904 0.493409
12 1 0.244509 0.564759 0.467479
13 1 0.264176 0.60041 0.294944
14 1 0.285966 0.565393 0.196663
15 1 0.30387 0.607735 0.339847
16 1 0.327991 0.62727 0.398169
17 1 0.338378 0.418172 0.461676
18 1 0.360628 0.438465 0.512078
19 1 0.384389 0.445758 0.428099
20 1 0.401509 0.60402 0.524758
21 1 0.417585 0.458117 0.496333
22 1 0.441569 0.444446 0.534433
23 1 0.461688 0.473831 0.561226
24 1 0.477477 0.502548 0.656502
25 1 0.488342 0.59082 0.431609
26 1 0.512792 0.557656 0.333817
27 1 0.532072 0.625043 0.479186
28 1 0.549221 0.428412 0.490904
29 1 0.573152 0.397867 0.53805
30 1 0.594557 0.539557 0.451036
31 1 0.615591 0.430378 0.498708
32 1 0.626826 0.639697 0.512693
33 1 0.624751 0.458254 0.616431
34 1 0.647628 0.553886 0.56775
35 1 0.668433 0.445471 0.456321
36 1 0.690766 0.574738 0.418841
37 1 0.71193 0.475033 0.424878
38 1 0.733115 0.48589 0.437996
39 1 0.753282 0.422129 0.5057
40 1 0.775543 0.516343 0.510311
41 1 0.795966 0.418558 0.534007
42 1 0.815201 0.566457 0.473257
43 1 0.827595 0.574021 0.644933
44 1 0.847184 0.4704 0.59099
45 1 0.86452 0.48626 0.418434
46 1 0.883894 0.459335 0.584337
47 1 0.907634 0.498322 0.460188
48 1 0.930531 0.355578 0.523369
49 1 0.943981 0.55329 0.505582
50 1 0.967681 0.535003 0.410987
ITEM: TIMESTEP
400
ITEM: NUMBER OF ATOMS
50
ITEM: BOX BOUNDS pp pp pp
0.0000000000000000e+00 5.1530000000000001e+01
0.0000000000000000e+00 5.0000000000000000e+00
0.0000000000000000e+00 5.0000000000000000e+00
ITEM: ATOMS id type xs ys zs
1 1 0.027236 0.394658 0.412814
2 1 0.0438307 0.43963 0.573711
3 1 0.0652336 0.431577 0.609114
4 1 0.0879779 0.369874 0.634053
5 1 0.104611 0.542949 0.642364
6 1 0.124285 0.436293 0.626942
7 1 0.144672 0.510751 0.642986
8 1 0.167695 0.548602 0.626853
9 1 0.191079 0.601309 0.603629
10 1 0.211585 0.498217 0.611029
11 1 0.230163 0.415111 0.484787
12 1 0.247864 0.529399 0.417075
13 1 0.263444 0.593735 0.268989
14 1 0.285589 0.607275 0.203491
15 1 0.306863 0.605859 0.317639
16 1 0.330312 0.600387 0.343063
17 1 0.339747 0.428679 0.433146
18 1 0.35917 0.469376 0.511587
19 1 0.381511 0.47644 0.437088
20 1 0.397907 0.578205 0.528599
21 1 0.416335 0.451342 0.451914
22 1 0.439694 0.425944 0.561785
23 1 0.464729 0.468541 0.549637
24 1 0.486713 0.526743 0.661602
25 1 0.489085 0.582705 0.452572
26 1 0.509857 0.599811 0.369212
27 1 0.531154 0.565748 0.427269
28 1 0.552369 0.470399 0.508325
29 1 0.573294 0.427327 0.502207
30 1 0.595652 0.494757 0.478452
31 1 0.620731 0.45629 0.498304
32 1 0.629212 0.637772 0.505458
33 1 0.623264 0.466182 0.637328
34 1 0.642934 0.502074 0.56006
35 1 0.6629 0.508631 0.475336
36 1 0.684867 0.56474 0.403101
37 1 0.709496 0.479458 0.393015
38 1 0.735858 0.456934 0.443674
39 1 0.759436 0.416292 0.514147
40 1 0.778178 0.535577 0.493685
41 1 0.796277 0.382435 0.530943
42 1 0.811164 0.595213 0.489588
43 1 0.827162 0.568055 0.662623
44 1 0.848539 0.519526 0.583049
45 1 0.868475 0.401464 0.487612
46 1 0.890986 0.480449 0.518109
47 1 0.910129 0.475857 0.506974
48 1 0.926735 0.383165 0.483348
49 1 0.942209 0.54077 0.514835
50 1 0.961789 0.537473 0.406878
ITEM: TIMESTEP
500
ITEM: NUMBER OF ATOMS
50
ITEM: BOX BOUNDS pp pp pp
0.0000000000000000e+00 5.1530000000000001e+01
0.0000000000000000e+00 5.0000000000000000e+00
0.0000000000000000e+00 5.0000000000000000e+00
ITEM: ATOMS id type xs ys zs
1 1 0.0320074 0.385885 0.411038
2 1 0.0451171 0.449867 0.63437
3 1 0.0674315 0.369402 0.623947
4 1 0.0906334 0.355411 0.586965
5 1 0.0984576 0.578426 0.609315
6 1 0.120886 0.486976 0.65186
7 1 0.144877 0.460777 0.720866
8 1 0.168187 0.563599 0.703998
9 1 0.185942 0.552607 0.545498
10 1 0.206979 0.497976 0.636935
11 1 0.227665 0.475313 0.498633
12 1 0.249794 0.493639 0.386987
13 1 0.265423 0.585574 0.197329
14 1 0.286659 0.677452 0.286427
15 1 0.307789 0.596702 0.246427
16 1 0.329546 0.584774 0.266675
17 1 0.338764 0.41423 0.403167
18 1 0.358279 0.501778 0.552052
19 1 0.381069 0.495511 0.418222
20 1 0.400174 0.549564 0.533083
21 1 0.421734 0.452402 0.478123
22 1 0.441961 0.442377 0.529221
23 1 0.462872 0.4635 0.588581
24 1 0.486083 0.514465 0.668541
25 1 0.489321 0.585663 0.432244
26 1 0.514776 0.632751 0.420481
27 1 0.53147 0.444721 0.373739
28 1 0.551538 0.584946 0.515053
29 1 0.574386 0.470601 0.448869
30 1 0.596284 0.429557 0.515674
31 1 0.619627 0.447566 0.495993
32 1 0.630343 0.637777 0.532751
33 1 0.619966 0.511819 0.648022
34 1 0.641948 0.448349 0.528772
35 1 0.665305 0.56824 0.466499
36 1 0.688784 0.510665 0.407583
37 1 0.711298 0.517715 0.40302
38 1 0.731466 0.404523 0.46056
39 1 0.754926 0.472533 0.471852
40 1 0.777719 0.530793 0.479571
41 1 0.798637 0.382089 0.526872
42 1 0.806765 0.590085 0.522213
43 1 0.828697 0.558288 0.652638
44 1 0.849826 0.526734 0.57862
45 1 0.865568 0.36253 0.54708
46 1 0.887744 0.506563 0.488425
47 1 0.914008 0.500219 0.538049
48 1 0.932232 0.339775 0.435197
49 1 0.940679 0.54787 0.537711
50 1 0.958359 0.539419 0.394252
ITEM: TIMESTEP
600
ITEM: NUMBER OF ATOMS
50
ITEM: BOX BOUNDS pp pp pp
0.0000000000000000e+00 5.1530000000000001e+01
0.0000000000000000e+00 5.0000000000000000e+00
0.0000000000000000e+00 5.0000000000000000e+00
ITEM: ATOMS id type xs ys zs
1 1 0.0389209 0.390484 0.453806
2 1 0.0486664 0.427048 0.650835
3 1 0.0690248 0.325229 0.632055
4 1 0.0906133 0.356131 0.550582
5 1 0.0995969 0.569912 0.596725
6 1 0.121245 0.539263 0.694655
7 1 0.142673 0.484493 0.754799
8 1 0.165821 0.52801 0.739022
9 1 0.179484 0.477863 0.557454
10 1 0.20608 0.510194 0.577771
11 1 0.229363 0.562063 0.503413
12 1 0.244686 0.490302 0.348306
13 1 0.264866 0.575752 0.250532
14 1 0.284051 0.684674 0.287521
15 1 0.306132 0.614206 0.206303
16 1 0.330785 0.558908 0.207091
17 1 0.341185 0.437148 0.403946
18 1 0.358914 0.500073 0.496811
19 1 0.377907 0.525366 0.458341
20 1 0.398185 0.507612 0.515683
21 1 0.424607 0.4612 0.526402
22 1 0.447581 0.462549 0.465461
23 1 0.462413 0.453502 0.659851
24 1 0.485091 0.514151 0.621142
25 1 0.49765 0.601746 0.449932
26 1 0.519125 0.576277 0.475279
27 1 0.534204 0.450961 0.404854
28 1 0.551615 0.58617 0.408883
29 1 0.574701 0.536684 0.452802
30 1 0.591534 0.401194 0.519017
31 1 0.61784 0.464914 0.506127
32 1 0.636583 0.646004 0.51377
33 1 0.624069 0.468016 0.620688
34 1 0.641095 0.519861 0.532392
35 1 0.664684 0.540019 0.463268
36 1 0.688106 0.459787 0.447838
37 1 0.710001 0.538447 0.428841
38 1 0.729742 0.403845 0.465408
39 1 0.7514 0.513537 0.434309
40 1 0.773575 0.47728 0.469835
41 1 0.79582 0.40949 0.51947
42 1 0.805058 0.596862 0.572977
43 1 0.828768 0.5434 0.610042
44 1 0.852029 0.524617 0.57254
45 1 0.87191 0.41349 0.586551
46 1 0.88944 0.457146 0.530405
47 1 0.907906 0.436388 0.477438
48 1 0.929595 0.370081 0.42646
49 1 0.940404 0.564636 0.57812
50 1 0.955255 0.543016 0.374245
ITEM: TIMESTEP
700
ITEM: NUMBER OF ATOMS
50
ITEM: BOX BOUNDS pp pp pp
0.0000000000000000e+00 5.1530000000000001e+01
0.0000000000000000e+00 5.0000000000000000e+00
0.0000000000000000e+00 5.0000000000000000e+00
ITEM: ATOMS id type xs ys zs
1 1 0.0457555 0.388496 0.485145
2 1 0.052967 0.415256 0.692256
3 1 0.071863 0.261828 0.638569
4 1 0.0896611 0.375113 0.504618
5 1 0.104909 0.522578 0.58418
6 1 0.119912 0.625366 0.75318
7 1 0.141476 0.53624 0.778263
8 1 0.164038 0.453078 0.738576
9 1 0.183821 0.431693 0.612567
10 1 0.202796 0.530274 0.479505
11 1 0.22344 0.610921 0.497789
12 1 0.238461 0.522494 0.318452
13 1 0.264107 0.566398 0.351079
14 1 0.284386 0.616581 0.236079
15 1 0.308623 0.701528 0.212671
16 1 0.319461 0.476794 0.163634
17 1 0.336542 0.477326 0.33693
18 1 0.355962 0.502626 0.483522
19 1 0.382215 0.577863 0.483404
20 1 0.405199 0.460404 0.518672
21 1 0.429728 0.474378 0.530539
22 1 0.448444 0.476687 0.478856
23 1 0.46123 0.451587 0.672006
24 1 0.482062 0.507602 0.602548
25 1 0.500813 0.617867 0.467249
26 1 0.523792 0.554977 0.530566
27 1 0.541798 0.437698 0.402688
28 1 0.556153 0.567914 0.330066
29 1 0.57894 0.581178 0.467596
30 1 0.597327 0.42131 0.480256
31 1 0.610988 0.617818 0.561301
32 1 0.633668 0.522848 0.448138
33 1 0.629063 0.395435 0.597719
34 1 0.642693 0.60271 0.534874
35 1 0.664077 0.487693 0.472706
36 1 0.686042 0.43362 0.492263
37 1 0.70685 0.525311 0.470766
38 1 0.728214 0.443959 0.462055
39 1 0.74856 0.550543 0.394306
40 1 0.767202 0.405408 0.461325
41 1 0.790746 0.438373 0.500425
42 1 0.806271 0.604809 0.626413
43 1 0.825899 0.533193 0.571428
44 1 0.848874 0.551135 0.550503
45 1 0.867425 0.401835 0.695198
46 1 0.890577 0.456695 0.563386
47 1 0.910462 0.379375 0.39442
48 1 0.936105 0.39869 0.420652
49 1 0.939519 0.556136 0.587824
50 1 0.950883 0.55036 0.362836
ITEM: TIMESTEP
800
ITEM: NUMBER OF ATOMS
50
ITEM: BOX BOUNDS pp pp pp
0.0000000000000000e+00 5.1530000000000001e+01
0.0000000000000000e+00 5.0000000000000000e+00
0.0000000000000000e+00 5.0000000000000000e+00
ITEM: ATOMS id type xs ys zs
1 1 0.0521629 0.384571 0.493952
2 1 0.0597334 0.382331 0.745942
3 1 0.0743443 0.248042 0.626076
4 1 0.0896509 0.385912 0.502391
5 1 0.107972 0.50251 0.598612
6 1 0.120941 0.644438 0.763162
7 1 0.142994 0.56488 0.784698
8 1 0.163596 0.420041 0.71748
9 1 0.188279 0.428714 0.656173
10 1 0.195803 0.524515 0.428635
11 1 0.217221 0.619733 0.450235
12 1 0.240328 0.601642 0.350617
13 1 0.264129 0.561327 0.369232
14 1 0.281211 0.581122 0.251505
15 1 0.30145 0.652588 0.192364
16 1 0.316127 0.503025 0.195705
17 1 0.336944 0.502664 0.298532
18 1 0.358612 0.536221 0.403259
19 1 0.381773 0.520949 0.522523
20 1 0.403466 0.476648 0.503249
21 1 0.427536 0.487014 0.538532
22 1 0.451303 0.493258 0.469542
23 1 0.465489 0.457835 0.687639
24 1 0.480927 0.535471 0.531535
25 1 0.504434 0.578807 0.589706
26 1 0.523831 0.485098 0.504485
27 1 0.549177 0.505694 0.448965
28 1 0.565414 0.520623 0.274133
29 1 0.580185 0.594847 0.458178
30 1 0.600761 0.523228 0.461835
31 1 0.614705 0.660615 0.525859
32 1 0.623483 0.503551 0.40318
33 1 0.636675 0.360702 0.590696
34 1 0.640742 0.584838 0.558068
35 1 0.660474 0.455475 0.493675
36 1 0.681773 0.405859 0.535137
37 1 0.704682 0.522825 0.505443
38 1 0.728126 0.485142 0.453653
39 1 0.748698 0.544089 0.381216
40 1 0.765278 0.392846 0.454255
41 1 0.782374 0.498978 0.498345
42 1 0.803848 0.561694 0.644098
43 1 0.825792 0.521322 0.539475
44 1 0.848809 0.513736 0.592618
45 1 0.87263 0.482865 0.640615
46 1 0.89042 0.371525 0.560158
47 1 0.909389 0.388884 0.450217
48 1 0.930601 0.414046 0.411344
49 1 0.939527 0.546929 0.569886
50 1 0.946181 0.56033 0.37317
ITEM: TIMESTEP
900
ITEM: NUMBER OF ATOMS
50
ITEM: BOX BOUNDS pp pp pp
0.0000000000000000e+00 5.1530000000000001e+01
0.0000000000000000e+00 5.0000000000000000e+00
0.0000000000000000e+00 5.0000000000000000e+00
ITEM: ATOMS id type xs ys zs
1 1 0.0592126 0.381503 0.532574
2 1 0.0645436 0.354991 0.767548
3 1 0.0782596 0.241307 0.598447
4 1 0.0912598 0.415434 0.52481
5 1 0.109204 0.488107 0.647835
6 1 0.12725 0.596677 0.729905
7 1 0.146833 0.559277 0.75773
8 1 0.164459 0.458827 0.69332
9 1 0.184665 0.453438 0.658085
10 1 0.192994 0.514497 0.452045
11 1 0.213846 0.602139 0.383348
12 1 0.236118 0.667705 0.404812
13 1 0.256756 0.560945 0.419174
14 1 0.27758 0.532439 0.263747
15 1 0.29969 0.621126 0.14319
16 1 0.315997 0.535418 0.27307
17 1 0.341732 0.533205 0.26244
18 1 0.365001 0.551768 0.331992
19 1 0.37881 0.469735 0.503152
20 1 0.400218 0.495848 0.502039
21 1 0.425051 0.497668 0.519349
22 1 0.450177 0.500049 0.521292
23 1 0.4682 0.474443 0.654263
24 1 0.485495 0.561316 0.507917
25 1 0.507704 0.507057 0.606861
26 1 0.527677 0.489478 0.528404
27 1 0.550617 0.53401 0.453279
28 1 0.56839 0.48838 0.285702
29 1 0.578694 0.606264 0.433713
30 1 0.60261 0.568508 0.431795
31 1 0.622415 0.671199 0.506679
32 1 0.616058 0.48469 0.443388
33 1 0.640474 0.351128 0.522376
34 1 0.642108 0.594231 0.555733
35 1 0.658886 0.43884 0.524399
36 1 0.679699 0.416553 0.56272
37 1 0.703684 0.471516 0.532775
38 1 0.724016 0.550185 0.447974
39 1 0.745795 0.535526 0.375715
40 1 0.765915 0.388788 0.460488
41 1 0.778671 0.554899 0.525872
42 1 0.802394 0.488764 0.588394
43 1 0.82689 0.526813 0.556822
44 1 0.849722 0.484118 0.622923
45 1 0.872099 0.52438 0.572544
46 1 0.883593 0.307084 0.579412
47 1 0.906874 0.406104 0.507654
48 1 0.929652 0.441522 0.392287
49 1 0.938775 0.534625 0.573628
50 1 0.943238 0.567476 0.356381
ITEM: TIMESTEP
1000
ITEM: NUMBER OF ATOMS
50
ITEM: BOX BOUNDS pp pp pp
0.0000000000000000e+00 5.1530000000000001e+01
0.0000000000000000e+00 5.0000000000000000e+00
0.0000000000000000e+00 5.0000000000000000e+00
ITEM: ATOMS id type xs ys zs
1 1 0.0661709 0.372468 0.569723
2 1 0.070575 0.325937 0.784897
3 1 0.0795435 0.230502 0.580929
4 1 0.0898209 0.432441 0.517746
5 1 0.107868 0.453964 0.678188
6 1 0.126294 0.622052 0.720638
7 1 0.151435 0.602415 0.797844
8 1 0.166809 0.426013 0.647026
9 1 0.191091 0.46012 0.676569
10 1 0.193071 0.525191 0.441331
11 1 0.214959 0.588807 0.310551
12 1 0.232945 0.68142 0.45288
13 1 0.253018 0.579355 0.39719
14 1 0.273853 0.54109 0.289213
15 1 0.295342 0.537838 0.195312
16 1 0.318312 0.579748 0.288503
17 1 0.343915 0.568255 0.257306
18 1 0.366003 0.546887 0.280506
19 1 0.377348 0.418284 0.450434
20 1 0.399569 0.539126 0.517226
21 1 0.424351 0.503948 0.497424
22 1 0.446839 0.505337 0.571152
23 1 0.468562 0.506306 0.592099
24 1 0.492779 0.580161 0.545771
25 1 0.511894 0.391504 0.543854
26 1 0.531226 0.552776 0.592252
27 1 0.548817 0.534714 0.416362
28 1 0.567373 0.448983 0.323057
29 1 0.580916 0.619385 0.426917
30 1 0.607781 0.654174 0.425411
31 1 0.628683 0.642986 0.459462
32 1 0.61427 0.416344 0.500161
33 1 0.633596 0.399753 0.438037
34 1 0.64121 0.621301 0.56011
35 1 0.65686 0.407023 0.54876
36 1 0.681123 0.42267 0.594123
37 1 0.705363 0.448001 0.540749
38 1 0.72138 0.57969 0.448347
39 1 0.742094 0.506562 0.40253
40 1 0.764922 0.415175 0.450951
41 1 0.78239 0.57508 0.565563
42 1 0.802742 0.474797 0.51803
43 1 0.824132 0.496467 0.593803
44 1 0.848812 0.473164 0.629604
45 1 0.868535 0.518012 0.489907
46 1 0.884035 0.329519 0.588498
47 1 0.903621 0.394063 0.537233
48 1 0.920572 0.452627 0.430377
49 1 0.937564 0.519295 0.581691
50 1 0.939615 0.578268 0.333754
ITEM: TIMESTEP
1100
ITEM: NUMBER OF ATOMS
50
ITEM: BOX BOUNDS pp pp pp
0.0000000000000000e+00 5.1530000000000001e+01
0.0000000000000000e+00 5.0000000000000000e+00
0.0000000000000000e+00 5.0000000000000000e+00
ITEM: ATOMS id type xs ys zs
11 1 0.215066 0.585549 0.302361
14 1 0.275405 0.554493 0.320074
15 1 0.297677 0.473502 0.356546
16 1 0.31598 0.599547 0.211571
17 1 0.340859 0.61196 0.286957
18 1 0.361702 0.516785 0.248414
28 1 0.567276 0.462843 0.385703
3 1 0.0808539 0.233023 0.589249
46 1 0.87531 0.354447 0.600165
1 1 0.0733077 0.371225 0.579138
4 1 0.0918484 0.450818 0.551855
8 1 0.169986 0.489715 0.684479
10 1 0.198566 0.536998 0.444201
13 1 0.249842 0.624273 0.327736
19 1 0.381969 0.436102 0.385107
20 1 0.40116 0.522608 0.496127
21 1 0.421904 0.523388 0.513868
22 1 0.446649 0.515121 0.609862
23 1 0.471432 0.565642 0.498189
24 1 0.494902 0.47762 0.585211
25 1 0.5149 0.418166 0.502661
26 1 0.53056 0.559081 0.601148
27 1 0.546904 0.528972 0.430918
29 1 0.587231 0.596647 0.387531
30 1 0.610059 0.707996 0.426873
31 1 0.625965 0.527692 0.409545
32 1 0.613517 0.461637 0.543156
33 1 0.631236 0.463305 0.369845
34 1 0.642117 0.582027 0.547565
35 1 0.660138 0.432524 0.596407
36 1 0.6808 0.430754 0.596204
37 1 0.702554 0.428452 0.554967
38 1 0.71934 0.588491 0.45491
39 1 0.74142 0.471691 0.44501
40 1 0.76288 0.509963 0.467424
41 1 0.785334 0.528249 0.572833
42 1 0.806019 0.485133 0.456222
43 1 0.821474 0.443697 0.634835
44 1 0.845271 0.483465 0.587419
45 1 0.862242 0.476234 0.451674
47 1 0.899339 0.373396 0.595183
48 1 0.914929 0.504922 0.427689
49 1 0.939554 0.498807 0.566533
50 1 0.93581 0.584364 0.331669
12 1 0.228734 0.637704 0.481022
2 1 0.0781346 0.278335 0.801497
5 1 0.110547 0.483517 0.693235
6 1 0.129484 0.567604 0.732544
7 1 0.150175 0.569228 0.721265
9 1 0.19164 0.472286 0.635405
ITEM: TIMESTEP
1200
ITEM: NUMBER OF ATOMS
50
ITEM: BOX BOUNDS pp pp pp
0.0000000000000000e+00 5.1530000000000001e+01
0.0000000000000000e+00 5.0000000000000000e+00
0.0000000000000000e+00 5.0000000000000000e+00
ITEM: ATOMS id type xs ys zs
11 1 0.220175 0.593512 0.249766
14 1 0.276202 0.569286 0.368107
15 1 0.297073 0.534118 0.429831
16 1 0.313018 0.552946 0.249678
17 1 0.3345 0.598742 0.265834
18 1 0.355587 0.505865 0.269705
28 1 0.573555 0.531825 0.454657
3 1 0.0820685 0.238455 0.561737
46 1 0.87104 0.383667 0.5889
1 1 0.0819566 0.351775 0.626831
4 1 0.0897322 0.455858 0.562902
8 1 0.17411 0.529081 0.727563
10 1 0.202601 0.562385 0.416091
13 1 0.253929 0.622181 0.338024
19 1 0.383207 0.489913 0.30312
20 1 0.405814 0.495867 0.461713
21 1 0.426066 0.535416 0.586111
22 1 0.449703 0.575461 0.481604
23 1 0.473029 0.546363 0.542981
24 1 0.490175 0.394139 0.547362
25 1 0.510032 0.464176 0.497504
26 1 0.528534 0.574116 0.606473
27 1 0.546507 0.496362 0.432177
29 1 0.595145 0.572683 0.374694
30 1 0.612888 0.67219 0.426906
31 1 0.623428 0.496315 0.316456
32 1 0.615587 0.456972 0.547823
33 1 0.620054 0.544787 0.380559
34 1 0.638505 0.552449 0.515739
35 1 0.657558 0.448611 0.646093
36 1 0.681846 0.44056 0.607307
37 1 0.704867 0.411859 0.557129
38 1 0.719942 0.57746 0.46154
39 1 0.744096 0.465605 0.495623
40 1 0.76229 0.577655 0.508416
41 1 0.785263 0.486129 0.530971
42 1 0.808431 0.500314 0.443042
43 1 0.817186 0.396361 0.643566
44 1 0.838805 0.488831 0.551165
45 1 0.857154 0.434528 0.431161
47 1 0.894109 0.396532 0.594302
48 1 0.912271 0.496647 0.535146
49 1 0.933203 0.478652 0.527858
50 1 0.931876 0.603944 0.304846
12 1 0.234334 0.597579 0.428991
2 1 0.0856528 0.246898 0.814355
5 1 0.107635 0.497997 0.715005
6 1 0.130563 0.533702 0.780939
7 1 0.151943 0.575446 0.644624
9 1 0.196754 0.447786 0.647073
ITEM: TIMESTEP
1300
ITEM: NUMBER OF ATOMS
50
ITEM: BOX BOUNDS pp pp pp
0.0000000000000000e+00 5.1530000000000001e+01
0.0000000000000000e+00 5.0000000000000000e+00
0.0000000000000000e+00 5.0000000000000000e+00
ITEM: ATOMS id type xs ys zs
11 1 0.219916 0.597438 0.230013
14 1 0.278083 0.559047 0.42666
15 1 0.300568 0.612923 0.498679
16 1 0.311831 0.505266 0.302024
17 1 0.336496 0.539348 0.242993
18 1 0.360655 0.526228 0.320062
28 1 0.574002 0.588954 0.477917
3 1 0.0833348 0.240791 0.603948
46 1 0.863612 0.42238 0.594204
1 1 0.0901645 0.369371 0.623626
4 1 0.0900605 0.4627 0.596522
8 1 0.176317 0.548731 0.702271
10 1 0.208989 0.557458 0.417311
13 1 0.256856 0.637752 0.319262
19 1 0.383833 0.55926 0.33475
20 1 0.405672 0.493986 0.375763
21 1 0.425029 0.543521 0.505099
22 1 0.449434 0.584413 0.475678
23 1 0.469522 0.507157 0.520635
24 1 0.487055 0.34793 0.498335
25 1 0.503965 0.544063 0.535795
26 1 0.531392 0.534605 0.53313
27 1 0.551918 0.518728 0.507572
29 1 0.595529 0.529834 0.385038
30 1 0.616326 0.639066 0.437362
31 1 0.615868 0.426721 0.322062
32 1 0.619239 0.474497 0.542628
33 1 0.619925 0.627611 0.377933
34 1 0.634319 0.501562 0.464749
35 1 0.654555 0.498302 0.624414
36 1 0.680823 0.440689 0.617191
37 1 0.703876 0.439333 0.557171
38 1 0.722402 0.515057 0.493247
39 1 0.746449 0.489357 0.53702
40 1 0.765675 0.611987 0.566551
41 1 0.782939 0.471256 0.44278
42 1 0.805211 0.507276 0.466929
43 1 0.815016 0.363098 0.633269
44 1 0.830518 0.492436 0.511416
45 1 0.848548 0.382999 0.399753
47 1 0.890017 0.385167 0.618897
48 1 0.911152 0.514361 0.607184
49 1 0.930622 0.483801 0.479539
50 1 0.928623 0.601508 0.304128
12 1 0.237818 0.546869 0.395858
2 1 0.0927409 0.184065 0.806191
5 1 0.109029 0.508274 0.725875
6 1 0.132274 0.517783 0.762754
7 1 0.155283 0.553977 0.661151
9 1 0.196519 0.491067 0.616661
ITEM: TIMESTEP
1400
ITEM: NUMBER OF ATOMS
50
ITEM: BOX BOUNDS pp pp pp
0.0000000000000000e+00 5.1530000000000001e+01
0.0000000000000000e+00 5.0000000000000000e+00
0.0000000000000000e+00 5.0000000000000000e+00
ITEM: ATOMS id type xs ys zs
11 1 0.222215 0.60034 0.208772
14 1 0.281156 0.597591 0.452204
15 1 0.302622 0.621682 0.493138
16 1 0.318669 0.515912 0.380645
17 1 0.339245 0.453955 0.280044
18 1 0.360638 0.565998 0.338418
28 1 0.574219 0.630086 0.490264
3 1 0.0823427 0.242847 0.612891
46 1 0.863266 0.415586 0.551345
1 1 0.0995981 0.361267 0.666269
4 1 0.0909165 0.472142 0.651987
8 1 0.175794 0.575854 0.679151
10 1 0.215852 0.546544 0.429705
13 1 0.260984 0.618267 0.340076
19 1 0.382128 0.603077 0.373611
20 1 0.403993 0.513475 0.317907
21 1 0.428279 0.555433 0.360926
22 1 0.445701 0.582222 0.53282
23 1 0.462492 0.418266 0.46383
24 1 0.488471 0.425516 0.470893
25 1 0.506712 0.538076 0.562378
26 1 0.530631 0.507386 0.478931
27 1 0.55048 0.547781 0.556978
29 1 0.596468 0.520528 0.421894
30 1 0.620069 0.577838 0.440258
31 1 0.610797 0.391614 0.32957
32 1 0.62025 0.465378 0.525007
33 1 0.620132 0.675216 0.408836
34 1 0.634915 0.473792 0.458274
35 1 0.655912 0.52737 0.527264
36 1 0.675105 0.455494 0.620545
37 1 0.699258 0.492848 0.560639
38 1 0.723304 0.446365 0.537711
39 1 0.747864 0.512276 0.57265
40 1 0.770308 0.60446 0.588636
41 1 0.780109 0.490352 0.401991
42 1 0.79995 0.506483 0.483345
43 1 0.812783 0.34626 0.611661
44 1 0.823981 0.481519 0.480316
45 1 0.845025 0.364402 0.435435
47 1 0.883643 0.440424 0.626625
48 1 0.905942 0.479471 0.665651
49 1 0.924855 0.474513 0.471086
50 1 0.925119 0.618217 0.275958
12 1 0.240056 0.519621 0.349763
2 1 0.0995896 0.154888 0.783681
5 1 0.112629 0.51689 0.721542
6 1 0.133088 0.506706 0.700483
7 1 0.155254 0.519938 0.720117
9 1 0.19719 0.527834 0.587878
ITEM: TIMESTEP
1500
ITEM: NUMBER OF ATOMS
50
ITEM: BOX BOUNDS pp pp pp
0.0000000000000000e+00 5.1530000000000001e+01
0.0000000000000000e+00 5.0000000000000000e+00
0.0000000000000000e+00 5.0000000000000000e+00
ITEM: ATOMS id type xs ys zs
11 1 0.224577 0.599934 0.201854
14 1 0.282266 0.683638 0.473743
15 1 0.306788 0.618535 0.486994
16 1 0.327611 0.517274 0.448455
17 1 0.344113 0.393711 0.334349
18 1 0.360334 0.593812 0.350814
28 1 0.572585 0.597819 0.509535
3 1 0.0847581 0.238209 0.662488
46 1 0.864155 0.401817 0.49128
1 1 0.105832 0.340621 0.669021
4 1 0.0893226 0.471541 0.688745
8 1 0.179269 0.612021 0.655166
10 1 0.220555 0.541831 0.439499
13 1 0.262898 0.550787 0.386159
19 1 0.382879 0.618394 0.392442
20 1 0.405271 0.564818 0.279871
21 1 0.428247 0.562233 0.308707
22 1 0.441261 0.520452 0.466676
23 1 0.462336 0.41574 0.446167
24 1 0.486775 0.49051 0.477005
25 1 0.50747 0.503573 0.525405
26 1 0.531722 0.486637 0.455017
27 1 0.549615 0.616769 0.572186
29 1 0.58966 0.544617 0.475618
30 1 0.609619 0.602795 0.421651
31 1 0.60485 0.387533 0.349629
32 1 0.623101 0.418922 0.530825
33 1 0.627712 0.650552 0.439982
34 1 0.63843 0.43348 0.425101
35 1 0.660915 0.559204 0.461698
36 1 0.677032 0.487561 0.590227
37 1 0.701387 0.51504 0.567717
38 1 0.723663 0.43622 0.610899
39 1 0.744258 0.525675 0.596077
40 1 0.767058 0.559141 0.586236
41 1 0.77579 0.517131 0.372199
42 1 0.79605 0.501354 0.512936
43 1 0.809509 0.322068 0.598278
44 1 0.818875 0.48047 0.427233
45 1 0.839249 0.347393 0.489638
47 1 0.88136 0.513819 0.644924
48 1 0.903225 0.426111 0.672682
49 1 0.913505 0.50351 0.471494
50 1 0.921991 0.604773 0.289232
12 1 0.242706 0.50775 0.280289
2 1 0.103081 0.108264 0.746195
5 1 0.111689 0.56705 0.740157
6 1 0.134747 0.493887 0.657038
7 1 0.159171 0.486061 0.772345
9 1 0.200729 0.558945 0.548121
ITEM: TIMESTEP
1600
ITEM: NUMBER OF ATOMS
50
ITEM: BOX BOUNDS pp pp pp
0.0000000000000000e+00 5.1530000000000001e+01
0.0000000000000000e+00 5.0000000000000000e+00
0.0000000000000000e+00 5.0000000000000000e+00
ITEM: ATOMS id type xs ys zs
11 1 0.225308 0.596004 0.205517
14 1 0.286342 0.671273 0.476921
15 1 0.309945 0.620566 0.478345
16 1 0.332823 0.533821 0.511407
17 1 0.350609 0.388918 0.409393
18 1 0.362447 0.58626 0.369025
28 1 0.564442 0.599307 0.542705
3 1 0.0896438 0.250545 0.714666
46 1 0.860042 0.408812 0.4985
1 1 0.112467 0.312254 0.677132
4 1 0.0945227 0.471347 0.747505
8 1 0.180607 0.569172 0.649604
10 1 0.221987 0.547662 0.44736
13 1 0.267916 0.546229 0.418718
19 1 0.382503 0.604903 0.379338
20 1 0.403349 0.648045 0.266348
21 1 0.426946 0.57035 0.255883
22 1 0.44189 0.405157 0.374446
23 1 0.464184 0.461627 0.441907
24 1 0.487735 0.577107 0.518119
25 1 0.505441 0.437171 0.433226
26 1 0.528565 0.488407 0.470504
27 1 0.538786 0.671479 0.585263
29 1 0.587309 0.514245 0.521206
30 1 0.606663 0.643296 0.370421
31 1 0.603209 0.380311 0.408317
32 1 0.622514 0.400552 0.502499
33 1 0.634936 0.603594 0.481223
34 1 0.645727 0.400084 0.404223
35 1 0.664951 0.574561 0.392218
36 1 0.68035 0.535602 0.539586
37 1 0.703088 0.522617 0.581019
38 1 0.721555 0.432482 0.695868
39 1 0.739325 0.555349 0.621742
40 1 0.763903 0.492727 0.57562
41 1 0.773999 0.551692 0.356548
42 1 0.790703 0.482358 0.53334