ITEM: TIMESTEP
0
ITEM: NUMBER OF ATOMS
100
ITEM: BOX BOUNDS pp pp pp
0.0000000000000000e+00 1.0003000000000000e+02
0.0000000000000000e+00 5.0000000000000000e+00
0.0000000000000000e+00 5.0000000000000000e+00
ITEM: ATOMS id type xs ys zs
1 1 0.019994 0.5 0.5
2 1 0.0296911 0.5 0.5
3 1 0.0393882 0.5 0.5
4 1 0.0490853 0.5 0.5
5 1 0.0587824 0.5 0.5
6 1 0.0684795 0.5 0.5
7 1 0.0781765 0.5 0.5
8 1 0.0878736 0.5 0.5
9 1 0.0975707 0.5 0.5
10 1 0.107268 0.5 0.5
11 1 0.116965 0.5 0.5
12 1 0.126662 0.5 0.5
13 1 0.136359 0.5 0.5
14 1 0.146056 0.5 0.5
15 1 0.155753 0.5 0.5
16 1 0.16545 0.5 0.5
17 1 0.175147 0.5 0.5
18 1 0.184845 0.5 0.5
19 1 0.194542 0.5 0.5
20 1 0.204239 0.5 0.5
21 1 0.213936 0.5 0.5
22 1 0.223633 0.5 0.5
23 1 0.23333 0.5 0.5
24 1 0.243027 0.5 0.5
25 1 0.252724 0.5 0.5
26 1 0.262421 0.5 0.5
27 1 0.272118 0.5 0.5
28 1 0.281815 0.5 0.5
29 1 0.291513 0.5 0.5
30 1 0.30121 0.5 0.5
31 1 0.310907 0.5 0.5
32 1 0.320604 0.5 0.5
33 1 0.330301 0.5 0.5
34 1 0.339998 0.5 0.5
35 1 0.349695 0.5 0.5
36 1 0.359392 0.5 0.5
37 1 0.369089 0.5 0.5
38 1 0.378786 0.5 0.5
39 1 0.388483 0.5 0.5
40 1 0.398181 0.5 0.5
41 1 0.407878 0.5 0.5
42 1 0.417575 0.5 0.5
43 1 0.427272 0.5 0.5
44 1 0.436969 0.5 0.5
45 1 0.446666 0.5 0.5
46 1 0.456363 0.5 0.5
47 1 0.46606 0.5 0.5
48 1 0.475757 0.5 0.5
49 1 0.485454 0.5 0.5
50 1 0.495151 0.5 0.5
51 1 0.504849 0.5 0.5
52 1 0.514546 0.5 0.5
53 1 0.524243 0.5 0.5
54 1 0.53394 0.5 0.5
55 1 0.543637 0.5 0.5
56 1 0.553334 0.5 0.5
57 1 0.563031 0.5 0.5
58 1 0.572728 0.5 0.5
59 1 0.582425 0.5 0.5
60 1 0.592122 0.5 0.5
61 1 0.601819 0.5 0.5
62 1 0.611517 0.5 0.5
63 1 0.621214 0.5 0.5
64 1 0.630911 0.5 0.5
65 1 0.640608 0.5 0.5
66 1 0.650305 0.5 0.5
67 1 0.660002 0.5 0.5
68 1 0.669699 0.5 0.5
69 1 0.679396 0.5 0.5
70 1 0.689093 0.5 0.5
71 1 0.69879 0.5 0.5
72 1 0.708487 0.5 0.5
73 1 0.718185 0.5 0.5
74 1 0.727882 0.5 0.5
75 1 0.737579 0.5 0.5
76 1 0.747276 0.5 0.5
77 1 0.756973 0.5 0.5
78 1 0.76667 0.5 0.5
79 1 0.776367 0.5 0.5
80 1 0.786064 0.5 0.5
81 1 0.795761 0.5 0.5
82 1 0.805458 0.5 0.5
83 1 0.815155 0.5 0.5
84 1 0.824853 0.5 0.5
85 1 0.83455 0.5 0.5
86 1 0.844247 0.5 0.5
87 1 0.853944 0.5 0.5
88 1 0.863641 0.5 0.5
89 1 0.873338 0.5 0.5
90 1 0.883035 0.5 0.5
91 1 0.892732 0.5 0.5
92 1 0.902429 0.5 0.5
93 1 0.912126 0.5 0.5
94 1 0.921823 0.5 0.5
95 1 0.931521 0.5 0.5
96 1 0.941218 0.5 0.5
97 1 0.950915 0.5 0.5
98 1 0.960612 0.5 0.5
99 1 0.970309 0.5 0.5
100 1 0.980006 0.5 0.5
ITEM: TIMESTEP
100
ITEM: NUMBER OF ATOMS
100
ITEM: BOX BOUNDS pp pp pp
0.0000000000000000e+00 1.0003000000000000e+02
0.0000000000000000e+00 5.0000000000000000e+00
0.0000000000000000e+00 5.0000000000000000e+00
ITEM: ATOMS id type xs ys zs
1 1 0.0125175 0.437297 0.432292
2 1 0.0250097 0.459688 0.409221
3 1 0.0347124 0.492253 0.610441
4 1 0.0479144 0.538224 0.665653
5 1 0.0578885 0.404026 0.637609
6 1 0.068784 0.480919 0.571652
7 1 0.0792476 0.484725 0.45182
8 1 0.0890993 0.630347 0.516484
9 1 0.0989547 0.503439 0.690286
10 1 0.107266 0.567779 0.452599
11 1 0.117024 0.395162 0.551952
12 1 0.125331 0.530094 0.387713
13 1 0.137855 0.632126 0.472557
14 1 0.146517 0.482234 0.26858
15 1 0.157129 0.619421 0.340985
16 1 0.165378 0.553273 0.49266
17 1 0.176927 0.543258 0.506835
18 1 0.186245 0.373942 0.422854
19 1 0.19608 0.467209 0.512455
20 1 0.203648 0.655474 0.475471
21 1 0.212211 0.425308 0.528247
22 1 0.223995 0.452915 0.48704
23 1 0.235713 0.496394 0.509421
24 1 0.246592 0.556484 0.656208
25 1 0.253585 0.484917 0.423488
26 1 0.26552 0.633506 0.354971
27 1 0.272797 0.491699 0.581153
28 1 0.283905 0.525746 0.403909
29 1 0.29205 0.407412 0.587457
30 1 0.302583 0.567606 0.415103
31 1 0.313257 0.450204 0.522033
32 1 0.320898 0.662942 0.46357
33 1 0.326189 0.415375 0.587003
34 1 0.335804 0.575149 0.525164
35 1 0.347315 0.410826 0.490989
36 1 0.357026 0.615295 0.430966
37 1 0.366228 0.407662 0.502885
38 1 0.375454 0.577137 0.393762
39 1 0.387493 0.508788 0.472655
40 1 0.397308 0.378447 0.583931
41 1 0.407752 0.543761 0.518001
42 1 0.420825 0.500855 0.414724
43 1 0.428124 0.589114 0.631126
44 1 0.435479 0.394317 0.54918
45 1 0.443419 0.644045 0.499462
46 1 0.456272 0.505282 0.399368
47 1 0.463838 0.339748 0.584825
48 1 0.47271 0.526255 0.542738
49 1 0.48432 0.480004 0.445202
50 1 0.498598 0.565028 0.42075
51 1 0.505718 0.602368 0.654991
52 1 0.51094 0.444753 0.430809
53 1 0.523418 0.546933 0.502753
54 1 0.532816 0.426149 0.60111
55 1 0.540905 0.468291 0.377319
56 1 0.551818 0.533891 0.514595
57 1 0.560734 0.376412 0.566821
58 1 0.571867 0.560781 0.519788
59 1 0.578858 0.337283 0.450677
60 1 0.590481 0.305285 0.590649
61 1 0.597994 0.586492 0.551867
62 1 0.6096 0.516227 0.468674
63 1 0.620109 0.401109 0.531541
64 1 0.63018 0.544762 0.402401
65 1 0.641111 0.421051 0.464698
66 1 0.652714 0.557259 0.462782
67 1 0.659107 0.316039 0.56875
68 1 0.669239 0.51082 0.567829
69 1 0.677388 0.347697 0.379415
70 1 0.684712 0.496688 0.546888
71 1 0.697083 0.443189 0.568724
72 1 0.706599 0.623461 0.485503
73 1 0.715704 0.482011 0.540456
74 1 0.727515 0.485206 0.480717
75 1 0.738898 0.552417 0.516297
76 1 0.749752 0.57404 0.563921
77 1 0.761317 0.424528 0.569477
78 1 0.769388 0.588201 0.398377
79 1 0.776494 0.479786 0.666697
80 1 0.785141 0.593888 0.485685
81 1 0.795414 0.470999 0.355865
82 1 0.807468 0.441468 0.493714
83 1 0.815873 0.668135 0.493015
84 1 0.825056 0.456075 0.558713
85 1 0.837698 0.538341 0.470669
86 1 0.844096 0.325107 0.34367
87 1 0.854493 0.39357 0.554542
88 1 0.864402 0.603253 0.573924
89 1 0.872999 0.415637 0.463925
90 1 0.883718 0.582785 0.47356
91 1 0.896176 0.662581 0.571624
92 1 0.903957 0.417073 0.626499
93 1 0.911306 0.501267 0.398457
94 1 0.92359 0.39186 0.457144
95 1 0.935214 0.476211 0.441208
96 1 0.947424 0.381642 0.456327
97 1 0.952391 0.670002 0.557834
98 1 0.96348 0.558938 0.459967
99 1 0.977025 0.553397 0.48577
100 1 0.989828 0.561525 0.537917
ITEM: TIMESTEP
200
ITEM: NUMBER OF ATOMS
100
ITEM: BOX BOUNDS pp pp pp
0.0000000000000000e+00 1.0003000000000000e+02
0.0000000000000000e+00 5.0000000000000000e+00
0.0000000000000000e+00 5.0000000000000000e+00
ITEM: ATOMS id type xs ys zs
1 1 0.0106112 0.393127 0.37304
2 1 0.021933 0.4409 0.482211
3 1 0.0320282 0.495294 0.616768
4 1 0.0425406 0.45989 0.739054
5 1 0.0554756 0.419891 0.74036
6 1 0.0689633 0.444529 0.612888
7 1 0.0807677 0.538114 0.508233
8 1 0.0898148 0.603379 0.565384
9 1 0.099963 0.620633 0.663321
10 1 0.108716 0.516868 0.571982
11 1 0.118264 0.433784 0.468774
12 1 0.127083 0.556317 0.412899
13 1 0.134845 0.585419 0.281924
14 1 0.146134 0.608089 0.203167
15 1 0.15695 0.658979 0.251154
16 1 0.165848 0.610726 0.421427
17 1 0.176485 0.504766 0.464446
18 1 0.18743 0.379361 0.435079
19 1 0.19729 0.450337 0.479454
20 1 0.205455 0.634377 0.493362
21 1 0.213274 0.467965 0.506063
22 1 0.224365 0.446711 0.515001
23 1 0.236891 0.486606 0.543624
24 1 0.2504 0.543635 0.620965
25 1 0.255626 0.599935 0.445482
26 1 0.264498 0.584357 0.387514
27 1 0.275094 0.585947 0.445421
28 1 0.284594 0.486902 0.468462
29 1 0.293433 0.452805 0.500821
30 1 0.303925 0.508203 0.472871
31 1 0.312498 0.481067 0.479934
32 1 0.321442 0.703233 0.46926
33 1 0.324257 0.450899 0.635918
34 1 0.334343 0.507866 0.559044
35 1 0.343832 0.517896 0.463414
36 1 0.353522 0.533637 0.425813
37 1 0.364417 0.488621 0.420433
38 1 0.375695 0.521249 0.40751
39 1 0.386207 0.484235 0.467411
40 1 0.397676 0.452236 0.537993
41 1 0.409249 0.447969 0.519932
42 1 0.417661 0.590879 0.46507
43 1 0.426503 0.586081 0.658209
44 1 0.437885 0.471568 0.607164
45 1 0.444964 0.523572 0.425817
46 1 0.453114 0.498022 0.521056
47 1 0.461674 0.374253 0.517138
48 1 0.474612 0.471955 0.51385
49 1 0.483827 0.542959 0.465112
50 1 0.495257 0.570317 0.475102
51 1 0.504844 0.637379 0.611025
52 1 0.509846 0.481162 0.46398
53 1 0.521307 0.483399 0.526526
54 1 0.530042 0.445966 0.531409
55 1 0.540276 0.450014 0.439563
56 1 0.551052 0.46491 0.49578
57 1 0.558717 0.411278 0.586955
58 1 0.570943 0.428524 0.514058
59 1 0.57882 0.295577 0.525533
60 1 0.586683 0.332779 0.556006
61 1 0.597298 0.455649 0.580368
62 1 0.6066 0.496975 0.508824
63 1 0.617859 0.427023 0.481489
64 1 0.630513 0.452593 0.405723
65 1 0.641116 0.478046 0.409438
66 1 0.651884 0.440202 0.460595
67 1 0.659333 0.331538 0.596154
68 1 0.669066 0.37624 0.568042
69 1 0.675125 0.331409 0.381976
70 1 0.683644 0.429781 0.552237
71 1 0.69256 0.509296 0.568254
72 1 0.703518 0.589094 0.535845
73 1 0.71396 0.513271 0.537699
74 1 0.727423 0.48749 0.492783
75 1 0.741448 0.577888 0.539508
76 1 0.752637 0.591584 0.605729
77 1 0.763107 0.460041 0.573391
78 1 0.771248 0.544014 0.451863
79 1 0.779387 0.575865 0.656875
80 1 0.787016 0.56174 0.46011
81 1 0.796022 0.500364 0.394737
82 1 0.806234 0.533678 0.404794
83 1 0.816326 0.570968 0.522132
84 1 0.828791 0.573946 0.510007
85 1 0.836472 0.423456 0.445013
86 1 0.846774 0.322256 0.412104
87 1 0.855681 0.40265 0.46959
88 1 0.862583 0.469666 0.581188
89 1 0.875465 0.531021 0.485138
90 1 0.885734 0.594478 0.525394
91 1 0.894235 0.618608 0.586621
92 1 0.905503 0.530823 0.592378
93 1 0.913002 0.399595 0.445252
94 1 0.925909 0.395662 0.392175
95 1 0.937727 0.394538 0.415259
96 1 0.948903 0.441923 0.450603
97 1 0.957993 0.637779 0.508341
98 1 0.968958 0.638827 0.488596
99 1 0.980616 0.611182 0.484184
100 1 0.99247 0.611494 0.542428
ITEM: TIMESTEP
300
ITEM: NUMBER OF ATOMS
100
ITEM: BOX BOUNDS pp pp pp
0.0000000000000000e+00 1.0003000000000000e+02
0.0000000000000000e+00 5.0000000000000000e+00
0.0000000000000000e+00 5.0000000000000000e+00
ITEM: ATOMS id type xs ys zs
1 1 0.0140206 0.375579 0.365139
2 1 0.0199793 0.432319 0.583557
3 1 0.0327653 0.458602 0.623577
4 1 0.0444208 0.360455 0.7075
5 1 0.0525572 0.523668 0.707384
6 1 0.0633794 0.41042 0.683541
7 1 0.0748321 0.560379 0.655979
8 1 0.0881234 0.572441 0.607185
9 1 0.101135 0.674108 0.665974
10 1 0.109934 0.515453 0.626668
11 1 0.118288 0.44033 0.430095
12 1 0.129929 0.591312 0.394991
13 1 0.13419 0.584883 0.166397
14 1 0.145486 0.687099 0.14396
15 1 0.157043 0.661435 0.243028
16 1 0.172006 0.665449 0.278256
17 1 0.173305 0.420556 0.395327
18 1 0.185358 0.475784 0.495402
19 1 0.197651 0.442408 0.406874
20 1 0.207375 0.606267 0.522443
21 1 0.215715 0.485102 0.46218
22 1 0.22669 0.48242 0.596658
23 1 0.237949 0.465719 0.580387
24 1 0.247824 0.520883 0.600935
25 1 0.252986 0.673479 0.450987
26 1 0.264447 0.581052 0.34729
27 1 0.277024 0.682125 0.360498
28 1 0.280233 0.446649 0.505068
29 1 0.294513 0.393278 0.499154
30 1 0.307923 0.542857 0.46472
31 1 0.319249 0.451227 0.43216
32 1 0.321225 0.703708 0.554192
33 1 0.31761 0.527272 0.657996
34 1 0.331538 0.483205 0.608212
35 1 0.34012 0.575643 0.414754
36 1 0.353052 0.524719 0.38463
37 1 0.365914 0.545747 0.335048
38 1 0.376037 0.445705 0.432654
39 1 0.388718 0.405919 0.512463
40 1 0.400005 0.571759 0.451888
41 1 0.407862 0.428399 0.514097
42 1 0.415203 0.595151 0.557399
43 1 0.426223 0.588274 0.631759
44 1 0.437024 0.534359 0.598662
45 1 0.444142 0.460712 0.460345
46 1 0.452305 0.484712 0.579211
47 1 0.46195 0.427192 0.472771
48 1 0.477123 0.377369 0.46714
49 1 0.480407 0.619667 0.50366
50 1 0.493243 0.562132 0.547563
51 1 0.504347 0.66413 0.569399
52 1 0.506314 0.528859 0.440861
53 1 0.516588 0.403074 0.610447
54 1 0.526915 0.478394 0.469662
55 1 0.539895 0.453075 0.471584
56 1 0.55295 0.372665 0.42431
57 1 0.5592 0.428936 0.663883
58 1 0.567229 0.377605 0.490911
59 1 0.575104 0.188087 0.574832
60 1 0.585286 0.321064 0.528653
61 1 0.598619 0.372105 0.648165
62 1 0.6086 0.49137 0.542342
63 1 0.619445 0.476438 0.391917
64 1 0.630486 0.37277 0.434168
65 1 0.638426 0.541727 0.364933
66 1 0.648205 0.353916 0.450248
67 1 0.657521 0.293837 0.634694
68 1 0.670118 0.306616 0.58032
69 1 0.675921 0.302973 0.360116
70 1 0.683136 0.35715 0.564318
71 1 0.689566 0.572304 0.557846
72 1 0.704407 0.514227 0.582096
73 1 0.71648 0.565972 0.494256
74 1 0.727811 0.592419 0.593543
75 1 0.74 0.518131 0.547917
76 1 0.750173 0.580568 0.602799
77 1 0.762824 0.499928 0.568533
78 1 0.773959 0.551755 0.54113
79 1 0.780655 0.633865 0.647995
80 1 0.785042 0.543753 0.431228
81 1 0.798072 0.496076 0.414507
82 1 0.810577 0.618993 0.361576
83 1 0.819499 0.510342 0.491673
84 1 0.829142 0.601888 0.45577
85 1 0.831672 0.377395 0.444412
86 1 0.845568 0.285024 0.422331
87 1 0.858695 0.404235 0.415678
88 1 0.867968 0.398333 0.594295
89 1 0.870466 0.648644 0.510501
90 1 0.884512 0.573243 0.553763
91 1 0.898221 0.601577 0.628723
92 1 0.910274 0.54093 0.521229
93 1 0.917661 0.379926 0.509698
94 1 0.927176 0.439501 0.356255
95 1 0.939617 0.318834 0.414067
96 1 0.949633 0.487923 0.429239
97 1 0.960379 0.595448 0.456122
98 1 0.970812 0.713041 0.535407
99 1 0.983651 0.653672 0.464684
100 1 0.995153 0.651878 0.549209
ITEM: TIMESTEP
400
ITEM: NUMBER OF ATOMS
100
ITEM: BOX BOUNDS pp pp pp
0.0000000000000000e+00 1.0003000000000000e+02
0.0000000000000000e+00 5.0000000000000000e+00
0.0000000000000000e+00 5.0000000000000000e+00
ITEM: ATOMS id type xs ys zs
1 1 0.019338 0.377523 0.425108
2 1 0.0226132 0.426039 0.638208
3 1 0.0323981 0.342045 0.663819
4 1 0.0447193 0.343306 0.611621
5 1 0.050786 0.565191 0.678006
6 1 0.0615733 0.518037 0.740814
7 1 0.0736956 0.507692 0.765112
8 1 0.0851809 0.606925 0.737225
9 1 0.0967357 0.547022 0.586061
10 1 0.109388 0.557213 0.603898
11 1 0.121069 0.599364 0.498035
12 1 0.126592 0.497923 0.28213
13 1 0.136652 0.632564 0.154132
14 1 0.149241 0.717119 0.15557
15 1 0.158522 0.688289 0.179019
16 1 0.168282 0.590796 0.192211
17 1 0.17619 0.48467 0.327528
18 1 0.184081 0.524528 0.455334
19 1 0.194963 0.507027 0.437147
20 1 0.206494 0.523789 0.498982
21 1 0.217438 0.497912 0.423011
22 1 0.225566 0.499773 0.653992
23 1 0.237948 0.465564 0.600982
24 1 0.249375 0.504705 0.622385
25 1 0.254084 0.655769 0.406479
26 1 0.266359 0.727345 0.359707
27 1 0.274802 0.551433 0.359941
28 1 0.286361 0.513566 0.44223
29 1 0.295898 0.520479 0.472443
30 1 0.306639 0.425246 0.481053
31 1 0.31865 0.523049 0.459053
32 1 0.322212 0.675158 0.528262
33 1 0.318514 0.507121 0.690511
34 1 0.327418 0.558818 0.538677
35 1 0.339097 0.534638 0.480184
36 1 0.351266 0.556786 0.35026
37 1 0.365595 0.50711 0.359746
38 1 0.377416 0.450126 0.42108
39 1 0.388721 0.445794 0.466917
40 1 0.397261 0.589835 0.409333
41 1 0.406862 0.436167 0.491509
42 1 0.412561 0.553705 0.716313
43 1 0.42347 0.579213 0.563461
44 1 0.437439 0.62604 0.558777
45 1 0.441987 0.370524 0.544141
46 1 0.456361 0.4637 0.581356
47 1 0.465615 0.469052 0.458953
48 1 0.475341 0.398506 0.432176
49 1 0.479377 0.593099 0.54954
50 1 0.49146 0.613522 0.596532
51 1 0.500698 0.677009 0.572174
52 1 0.50527 0.483895 0.435317
53 1 0.514806 0.426464 0.567627
54 1 0.527715 0.452669 0.485987
55 1 0.538143 0.415969 0.465881
56 1 0.548926 0.362195 0.463605
57 1 0.558319 0.417863 0.647636
58 1 0.563785 0.294577 0.487724
59 1 0.575544 0.199932 0.599651
60 1 0.587381 0.269752 0.598621
61 1 0.598523 0.352702 0.56841
62 1 0.608999 0.410663 0.544795
63 1 0.619224 0.489924 0.408026
64 1 0.62759 0.344331 0.450133
65 1 0.640215 0.466144 0.363366
66 1 0.645908 0.337338 0.537216
67 1 0.655935 0.34804 0.516945
68 1 0.665942 0.184207 0.528152
69 1 0.676848 0.309109 0.437311
70 1 0.683997 0.372753 0.569755
71 1 0.69368 0.477181 0.557845
72 1 0.705373 0.528022 0.543997
73 1 0.715176 0.608637 0.564817
74 1 0.7258 0.618648 0.607902
75 1 0.736799 0.519578 0.587762
76 1 0.748327 0.533021 0.598277
77 1 0.761943 0.595463 0.515545
78 1 0.773575 0.507912 0.650269
79 1 0.784412 0.655591 0.58562
80 1 0.789193 0.560546 0.471414
81 1 0.798507 0.595405 0.403821
82 1 0.810201 0.609996 0.409
83 1 0.820063 0.455207 0.413846
84 1 0.831606 0.562935 0.3943
85 1 0.83581 0.333061 0.437544
86 1 0.845903 0.440649 0.437213
87 1 0.855811 0.302578 0.487762
88 1 0.867875 0.428251 0.482904
89 1 0.875815 0.57826 0.579774
90 1 0.886388 0.635161 0.603426
91 1 0.896555 0.541035 0.545735
92 1 0.910089 0.529335 0.501199
93 1 0.921516 0.43409 0.545749
94 1 0.92999 0.401917 0.395986
95 1 0.941714 0.381614 0.390753
96 1 0.951673 0.528098 0.419405
97 1 0.962398 0.542644 0.424325
98 1 0.971832 0.703095 0.505624
99 1 0.984201 0.714128 0.511377
100 1 0.9944 0.691591 0.529511
ITEM: TIMESTEP
500
ITEM: NUMBER OF ATOMS
100
ITEM: BOX BOUNDS pp pp pp
0.0000000000000000e+00 1.0003000000000000e+02
0.0000000000000000e+00 5.0000000000000000e+00
0.0000000000000000e+00 5.0000000000000000e+00
ITEM: ATOMS id type xs ys zs
1 1 0.0240854 0.375633 0.465478
2 1 0.0256303 0.405105 0.701713
3 1 0.0344936 0.263785 0.68683
4 1 0.0437674 0.352507 0.55581
5 1 0.0520163 0.548473 0.657988
6 1 0.0623223 0.638055 0.785456
7 1 0.0729947 0.502375 0.839098
8 1 0.084868 0.545142 0.766916
9 1 0.0946171 0.501856 0.623504
10 1 0.105952 0.606245 0.534968
11 1 0.117992 0.61464 0.441317
12 1 0.125851 0.592276 0.300608
13 1 0.135672 0.606573 0.192845
14 1 0.146706 0.753644 0.157949
15 1 0.15987 0.739923 0.114271
16 1 0.166416 0.491032 0.0802435
17 1 0.17783 0.516513 0.239705
18 1 0.182838 0.590893 0.471337
19 1 0.19637 0.564521 0.46544
20 1 0.207514 0.428631 0.46406
21 1 0.218422 0.53561 0.466667
22 1 0.226602 0.481394 0.609356
23 1 0.237908 0.528887 0.660512
24 1 0.24893 0.513911 0.546481
25 1 0.257432 0.651834 0.445333
26 1 0.265992 0.675047 0.381748
27 1 0.273054 0.541281 0.364914
28 1 0.288313 0.583534 0.371567
29 1 0.301779 0.588003 0.449533
30 1 0.304687 0.349085 0.500113
31 1 0.315768 0.546561 0.450422
32 1 0.32277 0.687176 0.552082
33 1 0.32262 0.526943 0.656163
34 1 0.329907 0.597989 0.469936
35 1 0.340476 0.527497 0.480204
36 1 0.352023 0.540287 0.423012
37 1 0.361484 0.422543 0.46381
38 1 0.372032 0.536786 0.349678
39 1 0.385659 0.4835 0.406563
40 1 0.396568 0.564262 0.383879
41 1 0.405029 0.541518 0.538216
42 1 0.414838 0.485935 0.684167
43 1 0.422385 0.575278 0.596544
44 1 0.432685 0.539473 0.514264
45 1 0.442781 0.500176 0.661693
46 1 0.455722 0.384808 0.545397
47 1 0.465647 0.492843 0.453447
48 1 0.475824 0.42579 0.403757
49 1 0.47711 0.551449 0.582191
50 1 0.48911 0.664079 0.662852
51 1 0.5 0.677311 0.56312
52 1 0.506044 0.449121 0.419371
53 1 0.512999 0.485301 0.506977
54 1 0.525654 0.41596 0.563032
55 1 0.536144 0.362821 0.424233
56 1 0.547328 0.358305 0.520167
57 1 0.556721 0.387181 0.606544
58 1 0.563982 0.210898 0.540854
59 1 0.57634 0.25094 0.589404
60 1 0.588443 0.236372 0.639786
61 1 0.596553 0.33276 0.480075
62 1 0.6099 0.278029 0.527239
63 1 0.618464 0.500979 0.470751
64 1 0.625776 0.363566 0.445255
65 1 0.637706 0.372345 0.395127
66 1 0.645834 0.329009 0.56089
67 1 0.654335 0.336994 0.464697
68 1 0.66283 0.145782 0.459273
69 1 0.673639 0.265838 0.484282
70 1 0.683199 0.356305 0.613698
71 1 0.696296 0.429457 0.551922
72 1 0.707981 0.520425 0.503467
73 1 0.713957 0.692307 0.661357
74 1 0.726545 0.618802 0.573832
75 1 0.739928 0.5403 0.65256
76 1 0.749886 0.534147 0.545359
77 1 0.759649 0.565927 0.608583
78 1 0.768986 0.588829 0.667774
79 1 0.781116 0.668778 0.571117
80 1 0.79177 0.514288 0.497283
81 1 0.801692 0.680692 0.366514
82 1 0.813094 0.596685 0.426261
83 1 0.820842 0.442914 0.352595
84 1 0.832763 0.502525 0.328674
85 1 0.841073 0.333347 0.443188
86 1 0.848589 0.476258 0.472147
87 1 0.855971 0.355081 0.521396
88 1 0.867537 0.457416 0.464415
89 1 0.878904 0.473054 0.579888
90 1 0.890046 0.619041 0.615958
91 1 0.896396 0.514851 0.448637
92 1 0.908219 0.460835 0.54083
93 1 0.921394 0.529358 0.539276
94 1 0.931674 0.407829 0.445457
95 1 0.943216 0.416488 0.379943
96 1 0.954312 0.586572 0.41463
97 1 0.964638 0.491007 0.40509
98 1 0.974933 0.663232 0.435661
99 1 0.981882 0.797049 0.59875
100 1 0.993461 0.725386 0.49262
ITEM: TIMESTEP
600
ITEM: NUMBER OF ATOMS
100
ITEM: BOX BOUNDS pp pp pp
0.0000000000000000e+00 1.0003000000000000e+02
0.0000000000000000e+00 5.0000000000000000e+00
0.0000000000000000e+00 5.0000000000000000e+00
ITEM: ATOMS id type xs ys zs
1 1 0.0289282 0.381382 0.518445
2 1 0.0291855 0.380578 0.768163
3 1 0.0395406 0.212255 0.663815
4 1 0.0447178 0.431324 0.593245
5 1 0.0551839 0.483509 0.660109
6 1 0.0616451 0.646091 0.771595
7 1 0.0740303 0.572991 0.849645
8 1 0.0846281 0.457163 0.754734
9 1 0.0955132 0.537796 0.723752
10 1 0.0979925 0.615339 0.452659
11 1 0.112624 0.580195 0.343016
12 1 0.124522 0.701558 0.358632
13 1 0.136162 0.652226 0.252024
14 1 0.147202 0.719622 0.154529
15 1 0.156873 0.643431 0.0473143
16 1 0.167929 0.566518 0.0835444
17 1 0.176318 0.573331 0.205117
18 1 0.18586 0.594863 0.340726
19 1 0.196421 0.558264 0.483024
20 1 0.204492 0.427401 0.440355
21 1 0.217097 0.543474 0.490888
22 1 0.227529 0.505487 0.591324
23 1 0.238935 0.563777 0.682976
24 1 0.245922 0.514449 0.484945
25 1 0.257571 0.671113 0.536962
26 1 0.269907 0.603704 0.374072
27 1 0.281706 0.547222 0.365703
28 1 0.290975 0.692392 0.36405
29 1 0.298792 0.553177 0.338071
30 1 0.304566 0.400809 0.516211
31 1 0.312831 0.58627 0.489786
32 1 0.321395 0.677753 0.500132
33 1 0.327717 0.504567 0.608272
34 1 0.329189 0.629684 0.448886
35 1 0.341514 0.513093 0.467387
36 1 0.35464 0.517795 0.51478
37 1 0.362851 0.395599 0.516449
38 1 0.367279 0.536301 0.364994
39 1 0.38047 0.567829 0.315035
40 1 0.392934 0.541599 0.403453
41 1 0.403753 0.579753 0.558983
42 1 0.412711 0.438099 0.653454
43 1 0.423438 0.598274 0.619748
44 1 0.434435 0.447317 0.552656
45 1 0.443742 0.5416 0.581157
46 1 0.451449 0.435468 0.573146
47 1 0.463133 0.456974 0.507465
48 1 0.475886 0.487918 0.398863
49 1 0.477644 0.543033 0.600306
50 1 0.488483 0.667512 0.652959
51 1 0.496676 0.588942 0.558848
52 1 0.50264 0.482041 0.410572
53 1 0.513176 0.548446 0.512128
54 1 0.524411 0.388614 0.566768
55 1 0.531957 0.326815 0.430711
56 1 0.545345 0.335212 0.543745
57 1 0.557377 0.346586 0.581312
58 1 0.567871 0.158026 0.629742
59 1 0.57651 0.297876 0.575743
60 1 0.588766 0.236609 0.617021
61 1 0.597142 0.240407 0.462787
62 1 0.608728 0.287043 0.46756
63 1 0.612674 0.441533 0.558015
64 1 0.623899 0.317492 0.447852
65 1 0.63643 0.288392 0.439799
66 1 0.644786 0.35078 0.603764
67 1 0.652741 0.294425 0.367367
68 1 0.664434 0.152639 0.421306
69 1 0.671973 0.23791 0.568366
70 1 0.684704 0.330603 0.549169
71 1 0.698242 0.401832 0.561003
72 1 0.70627 0.519333 0.554224
73 1 0.717304 0.652194 0.630637
74 1 0.727296 0.630079 0.663781
75 1 0.737778 0.593193 0.650776
76 1 0.746895 0.53793 0.482308
77 1 0.757618 0.550706 0.688404
78 1 0.770204 0.657738 0.677074
79 1 0.780549 0.582602 0.549345
80 1 0.791341 0.697193 0.501756
81 1 0.803544 0.627727 0.415843
82 1 0.8148 0.576635 0.419478
83 1 0.822664 0.455738 0.294381
84 1 0.834242 0.409447 0.298908
85 1 0.843465 0.333929 0.403197
86 1 0.850193 0.554948 0.505664
87 1 0.860309 0.421366 0.548189
88 1 0.871224 0.510066 0.58386
89 1 0.880152 0.40648 0.447499
90 1 0.891248 0.464972 0.610311
91 1 0.900162 0.498695 0.433458
92 1 0.90867 0.46876 0.525028
93 1 0.920122 0.510789 0.466909
94 1 0.933058 0.492642 0.539695
95 1 0.942387 0.520859 0.413224
96 1 0.95625 0.5569 0.391984
97 1 0.967315 0.516065 0.386787
98 1 0.977157 0.638931 0.457226
99 1 0.979086 0.795931 0.597215
100 1 0.989956 0.768048 0.4517
ITEM: TIMESTEP
700
ITEM: NUMBER OF ATOMS
100
ITEM: BOX BOUNDS pp pp pp
0.0000000000000000e+00 1.0003000000000000e+02
0.0000000000000000e+00 5.0000000000000000e+00
0.0000000000000000e+00 5.0000000000000000e+00
ITEM: ATOMS id type xs ys zs
1 1 0.0338317 0.390547 0.572827
2 1 0.0356499 0.300697 0.814364
3 1 0.0437205 0.235861 0.645733
4 1 0.0464797 0.493533 0.658415
5 1 0.0576142 0.426371 0.671671
6 1 0.064908 0.607182 0.774014
7 1 0.0761689 0.630587 0.778172
8 1 0.0841287 0.447651 0.745565
9 1 0.092289 0.58823 0.641381
10 1 0.101563 0.551557 0.493451
11 1 0.106374 0.675334 0.335906
12 1 0.119198 0.675473 0.339372
13 1 0.133696 0.753739 0.340711
14 1 0.143304 0.645819 0.180494
15 1 0.153094 0.571336 0.0168477
16 1 0.166615 0.636207 0.061316
17 1 0.177792 0.642204 0.226629
18 1 0.191877 0.575644 0.201394
19 1 0.194497 0.55721 0.46587
20 1 0.204925 0.499546 0.425242
21 1 0.216701 0.452826 0.588292
22 1 0.225907 0.604814 0.504896
23 1 0.238492 0.551582 0.631938
24 1 0.248232 0.618736 0.522799
25 1 0.258103 0.544734 0.457504
26 1 0.271898 0.559305 0.485685
27 1 0.282669 0.634032 0.377201
28 1 0.292512 0.681984 0.328333
29 1 0.299182 0.57312 0.295859
30 1 0.302112 0.438831 0.494623
31 1 0.309359 0.635505 0.521218
32 1 0.32192 0.62403 0.472127
33 1 0.33255 0.497811 0.589136
34 1 0.334079 0.643942 0.391287
35 1 0.342137 0.560728 0.474253
36 1 0.353041 0.497802 0.573653
37 1 0.364566 0.399738 0.536756
38 1 0.369708 0.521685 0.385324
39 1 0.379403 0.623976 0.316874
40 1 0.385316 0.557233 0.50454
41 1 0.39879 0.523763 0.48747
42 1 0.410979 0.567753 0.535269
43 1 0.421639 0.448071 0.631993
44 1 0.435452 0.422392 0.653517
45 1 0.441308 0.588253 0.512402
46 1 0.450087 0.473748 0.562995
47 1 0.463432 0.431156 0.540264
48 1 0.471419 0.559177 0.402788
49 1 0.478749 0.505318 0.642513
50 1 0.485545 0.717682 0.662603
51 1 0.495356 0.512795 0.574419
52 1 0.502157 0.490282 0.3728
53 1 0.513609 0.537443 0.513567
54 1 0.523512 0.384872 0.54842
55 1 0.53144 0.317739 0.513102
56 1 0.545858 0.309753 0.546546
57 1 0.554841 0.182622 0.54834
58 1 0.567006 0.239253 0.676491
59 1 0.575485 0.333061 0.572274
60 1 0.58795 0.22827 0.59625
61 1 0.596031 0.151291 0.435478
62 1 0.609092 0.247434 0.415597
63 1 0.612819 0.370054 0.611528
64 1 0.622334 0.306324 0.476633
65 1 0.631799 0.23928 0.526427
66 1 0.643453 0.330427 0.505643
67 1 0.654705 0.220202 0.399277
68 1 0.665208 0.253313 0.439254
69 1 0.673452 0.236765 0.580605
70 1 0.68464 0.274144 0.479937
71 1 0.696067 0.371154 0.574998
72 1 0.703194 0.5155 0.627093
73 1 0.718927 0.57866 0.566559
74 1 0.727329 0.641248 0.760754
75 1 0.73669 0.647243 0.601883
76 1 0.748419 0.527337 0.652613
77 1 0.759188 0.626592 0.565042
78 1 0.769872 0.620129 0.634524
79 1 0.779891 0.620773 0.568753
80 1 0.790084 0.702155 0.508836
81 1 0.802188 0.646318 0.4829
82 1 0.814112 0.566298 0.42543
83 1 0.825318 0.483525 0.233186
84 1 0.836349 0.314978 0.283792
85 1 0.845749 0.377389 0.358923
86 1 0.851465 0.560043 0.525404
87 1 0.864626 0.511035 0.595837
88 1 0.875995 0.4914 0.583176
89 1 0.881994 0.413905 0.489524
90 1 0.891867 0.303474 0.508915
91 1 0.900916 0.486961 0.415314
92 1 0.912118 0.478854 0.529265
93 1 0.924096 0.464057 0.41845
94 1 0.933133 0.610612 0.562273
95 1 0.943278 0.613827 0.480874
96 1 0.955176 0.518851 0.383827
97 1 0.967242 0.589056 0.362032
98 1 0.980378 0.568484 0.492933
99 1 0.976795 0.819447 0.564767
100 1 0.983784 0.80092 0.436046
ITEM: TIMESTEP
800
ITEM: NUMBER OF ATOMS
100
ITEM: BOX BOUNDS pp pp pp
0.0000000000000000e+00 1.0003000000000000e+02
0.0000000000000000e+00 5.0000000000000000e+00
0.0000000000000000e+00 5.0000000000000000e+00
ITEM: ATOMS id type xs ys zs
1 1 0.0387503 0.393297 0.652787
2 1 0.0416684 0.246936 0.821905
3 1 0.048589 0.301262 0.649201
4 1 0.0485417 0.508419 0.721306
5 1 0.0597423 0.374975 0.685415
6 1 0.068562 0.567259 0.7612
7 1 0.07751 0.663897 0.71032
8 1 0.0861407 0.47944 0.720401
9 1 0.0911482 0.587063 0.500537
10 1 0.102943 0.570269 0.532626
11 1 0.106927 0.708499 0.411741
12 1 0.117176 0.710543 0.315876
13 1 0.129283 0.689815 0.272524
14 1 0.139215 0.605606 0.215437
15 1 0.152037 0.620055 0.172959
16 1 0.165371 0.654581 0.152946
17 1 0.176839 0.654221 0.0758394
18 1 0.187792 0.603146 0.174596
19 1 0.196059 0.538503 0.369359
20 1 0.206244 0.562151 0.475595
21 1 0.216824 0.472188 0.570143
22 1 0.223997 0.592567 0.51195
23 1 0.237839 0.596269 0.503058
24 1 0.251141 0.619081 0.531111
25 1 0.260164 0.522378 0.472796
26 1 0.27198 0.514869 0.511244
27 1 0.277943 0.743745 0.444465
28 1 0.289705 0.648096 0.292646
29 1 0.304677 0.568662 0.240451
30 1 0.301351 0.516419 0.485358
31 1 0.310051 0.644611 0.528952
32 1 0.321518 0.536661 0.490716
33 1 0.332218 0.533393 0.530762
34 1 0.337248 0.669314 0.324733
35 1 0.345488 0.609958 0.502011
36 1 0.351294 0.382315 0.643354
37 1 0.363292 0.496867 0.543038
38 1 0.373987 0.470174 0.409315
39 1 0.380001 0.678967 0.352459
40 1 0.383862 0.567371 0.543405
41 1 0.396162 0.533858 0.465247
42 1 0.40859 0.513267 0.497715
43 1 0.420118 0.471708 0.56976
44 1 0.429477 0.425386 0.69458
45 1 0.438067 0.515963 0.482344
46 1 0.451058 0.578309 0.521858
47 1 0.461964 0.432518 0.572255
48 1 0.467198 0.58354 0.512002
49 1 0.479221 0.509493 0.600803
50 1 0.485233 0.670372 0.641772
51 1 0.492851 0.482275 0.540096
52 1 0.500609 0.527967 0.440457
53 1 0.51163 0.516613 0.475599
54 1 0.52233 0.390743 0.546368
55 1 0.533411 0.292732 0.599423
56 1 0.549196 0.248032 0.549447
57 1 0.555003 0.101034 0.583985
58 1 0.562669 0.307284 0.62476
59 1 0.574737 0.310289 0.59145
60 1 0.587167 0.224012 0.510017
61 1 0.595834 0.115909 0.458853
62 1 0.60585 0.244076 0.404646
63 1 0.611295 0.271674 0.649117
64 1 0.621354 0.272612 0.505686
65 1 0.63211 0.218166 0.596276
66 1 0.642082 0.231932 0.39512
67 1 0.654839 0.220362 0.458563
68 1 0.663716 0.363412 0.465316
69 1 0.675707 0.20265 0.561027
70 1 0.686279 0.245908 0.454851
71 1 0.696063 0.383342 0.575968
72 1 0.703995 0.47778 0.623216
73 1 0.716253 0.496223 0.674713
74 1 0.725038 0.620117 0.702435
75 1 0.736537 0.653433 0.635677
76 1 0.748388 0.615869 0.657634
77 1 0.756409 0.62123 0.565868
78 1 0.768949 0.602279 0.603777
79 1 0.78213 0.725328 0.582157
80 1 0.794409 0.596461 0.474123
81 1 0.807407 0.637551 0.516471
82 1 0.812623 0.555628 0.319234
83 1 0.82415 0.467116 0.376518
84 1 0.835057 0.368887 0.278346
85 1 0.845562 0.443353 0.348951
86 1 0.854982 0.507302 0.497603
87 1 0.863962 0.633315 0.635019
88 1 0.876611 0.500767 0.624629
89 1 0.887748 0.387495 0.477186
90 1 0.89694 0.210346 0.375464
91 1 0.903366 0.393395 0.477444
92 1 0.91499 0.483478 0.442506
93 1 0.926578 0.483322 0.473059
94 1 0.934237 0.674823 0.491875
95 1 0.946028 0.65868 0.539365
96 1 0.955984 0.560118 0.407098
97 1 0.965163 0.597693 0.413673
98 1 0.976085 0.602301 0.474343
99 1 0.97274 0.782405 0.575229
100 1 0.98074 0.814027 0.36649
ITEM: TIMESTEP
900
ITEM: NUMBER OF ATOMS
100
ITEM: BOX BOUNDS pp pp pp
0.0000000000000000e+00 1.0003000000000000e+02
0.0000000000000000e+00 5.0000000000000000e+00
0.0000000000000000e+00 5.0000000000000000e+00
ITEM: ATOMS id type xs ys zs
1 1 0.0439124 0.377555 0.722831
2 1 0.0475149 0.205272 0.82027