ITEM: TIMESTEP
0
ITEM: NUMBER OF ATOMS
20
ITEM: BOX BOUNDS pp pp pp
0.0000000000000000e+00 2.2430000000000000e+01
0.0000000000000000e+00 5.0000000000000000e+00
0.0000000000000000e+00 5.0000000000000000e+00
ITEM: ATOMS id type xs ys zs
1 1 0.0891663 0.5 0.5
2 1 0.132412 0.5 0.5
3 1 0.175658 0.5 0.5
4 1 0.218903 0.5 0.5
5 1 0.262149 0.5 0.5
6 1 0.305395 0.5 0.5
7 1 0.34864 0.5 0.5
8 1 0.391886 0.5 0.5
9 1 0.435132 0.5 0.5
10 1 0.478377 0.5 0.5
11 1 0.521623 0.5 0.5
12 1 0.564868 0.5 0.5
13 1 0.608114 0.5 0.5
14 1 0.65136 0.5 0.5
15 1 0.694605 0.5 0.5
16 1 0.737851 0.5 0.5
17 1 0.781097 0.5 0.5
18 1 0.824342 0.5 0.5
19 1 0.867588 0.5 0.5
20 1 0.910834 0.5 0.5
ITEM: TIMESTEP
100
ITEM: NUMBER OF ATOMS
20
ITEM: BOX BOUNDS pp pp pp
0.0000000000000000e+00 2.2430000000000000e+01
0.0000000000000000e+00 5.0000000000000000e+00
0.0000000000000000e+00 5.0000000000000000e+00
ITEM: ATOMS id type xs ys zs
1 1 0.0578285 0.451066 0.459523
2 1 0.112384 0.465703 0.435491
3 1 0.160506 0.488458 0.584711
4 1 0.21478 0.524176 0.614821
5 1 0.259162 0.42194 0.596856
6 1 0.305669 0.482709 0.552994
7 1 0.350786 0.479234 0.464984
8 1 0.394406 0.586991 0.512931
9 1 0.438863 0.488305 0.647429
10 1 0.478972 0.554154 0.452735
11 1 0.521462 0.399438 0.558863
12 1 0.559903 0.5202 0.411183
13 1 0.611625 0.59181 0.499972
14 1 0.652733 0.467489 0.338171
15 1 0.698617 0.582752 0.394345
16 1 0.737776 0.525761 0.508144
17 1 0.785954 0.518366 0.506984
18 1 0.834404 0.416373 0.457818
19 1 0.887208 0.486047 0.5061
20 1 0.936962 0.549029 0.495943
ITEM: TIMESTEP
200
ITEM: NUMBER OF ATOMS
20
ITEM: BOX BOUNDS pp pp pp
0.0000000000000000e+00 2.2430000000000000e+01
0.0000000000000000e+00 5.0000000000000000e+00
0.0000000000000000e+00 5.0000000000000000e+00
ITEM: ATOMS id type xs ys zs
1 1 0.0451166 0.419691 0.427266
2 1 0.0994918 0.447606 0.456526
3 1 0.144127 0.48873 0.599
4 1 0.196774 0.498048 0.679449
5 1 0.247699 0.387765 0.673296
6 1 0.306444 0.467664 0.585953
7 1 0.360777 0.494968 0.457663
8 1 0.402436 0.589079 0.541193
9 1 0.445783 0.542751 0.644848
10 1 0.481871 0.523679 0.522239
11 1 0.523899 0.408576 0.518623
12 1 0.561344 0.523885 0.429364
13 1 0.605943 0.576206 0.401979
14 1 0.645851 0.518644 0.288899
15 1 0.6926 0.615146 0.3285
16 1 0.737016 0.55384 0.494707
17 1 0.796441 0.501858 0.505706
18 1 0.849711 0.400512 0.453748
19 1 0.903152 0.464685 0.49768
20 1 0.953523 0.576669 0.493361
ITEM: TIMESTEP
300
ITEM: NUMBER OF ATOMS
20
ITEM: BOX BOUNDS pp pp pp
0.0000000000000000e+00 2.2430000000000000e+01
0.0000000000000000e+00 5.0000000000000000e+00
0.0000000000000000e+00 5.0000000000000000e+00
ITEM: ATOMS id type xs ys zs
1 1 0.0464432 0.400999 0.405196
2 1 0.0930581 0.440101 0.52051
3 1 0.144603 0.490607 0.59499
4 1 0.196112 0.392244 0.68365
5 1 0.247226 0.502653 0.669329
6 1 0.293398 0.39321 0.59088
7 1 0.338452 0.529195 0.558223
8 1 0.396281 0.557825 0.537585
9 1 0.444197 0.595816 0.695594
10 1 0.484825 0.525346 0.537221
11 1 0.525 0.334075 0.50602
12 1 0.558475 0.557594 0.463736
13 1 0.60769 0.596501 0.315711
14 1 0.659331 0.565502 0.229629
15 1 0.702347 0.571596 0.379611
16 1 0.761111 0.601406 0.369962
17 1 0.797135 0.43896 0.473386
18 1 0.849696 0.486844 0.503475
19 1 0.902009 0.449712 0.471814
20 1 0.952612 0.569813 0.493476
ITEM: TIMESTEP
400
ITEM: NUMBER OF ATOMS
20
ITEM: BOX BOUNDS pp pp pp
0.0000000000000000e+00 2.2430000000000000e+01
0.0000000000000000e+00 5.0000000000000000e+00
0.0000000000000000e+00 5.0000000000000000e+00
ITEM: ATOMS id type xs ys zs
1 1 0.056632 0.394881 0.415558
2 1 0.0976723 0.43858 0.567297
3 1 0.147595 0.439111 0.607299
4 1 0.199219 0.372423 0.641712
5 1 0.239203 0.533882 0.645488
6 1 0.283759 0.42623 0.617873
7 1 0.330208 0.510095 0.630378
8 1 0.383339 0.541193 0.61303
9 1 0.436121 0.599467 0.617723
10 1 0.483085 0.495479 0.602026
11 1 0.527396 0.408211 0.487415
12 1 0.568398 0.521144 0.419307
13 1 0.609771 0.586773 0.295252
14 1 0.664115 0.605085 0.270173
15 1 0.715994 0.558694 0.349099
16 1 0.767997 0.569191 0.319691
17 1 0.803692 0.448686 0.420884
18 1 0.847659 0.545818 0.531064
19 1 0.893808 0.460367 0.458162
20 1 0.944338 0.544691 0.490571
ITEM: TIMESTEP
500
ITEM: NUMBER OF ATOMS
20
ITEM: BOX BOUNDS pp pp pp
0.0000000000000000e+00 2.2430000000000000e+01
0.0000000000000000e+00 5.0000000000000000e+00
0.0000000000000000e+00 5.0000000000000000e+00
ITEM: ATOMS id type xs ys zs
1 1 0.0666708 0.386515 0.415599
2 1 0.100137 0.447115 0.625084
3 1 0.151267 0.38133 0.618666
4 1 0.203611 0.352633 0.599586
5 1 0.224527 0.573232 0.617678
6 1 0.274437 0.467274 0.636158
7 1 0.328442 0.465813 0.711967
8 1 0.382718 0.546132 0.688256
9 1 0.42718 0.568158 0.556158
10 1 0.476273 0.491735 0.62686
11 1 0.525361 0.476954 0.490234
12 1 0.576702 0.480833 0.374488
13 1 0.624812 0.573494 0.246633
14 1 0.671141 0.644099 0.397775
15 1 0.716909 0.55818 0.262265
16 1 0.770224 0.534303 0.269014
17 1 0.816022 0.459816 0.369265
18 1 0.844464 0.597982 0.558566
19 1 0.884548 0.474651 0.449325
20 1 0.934554 0.519751 0.486421
ITEM: TIMESTEP
600
ITEM: NUMBER OF ATOMS
20
ITEM: BOX BOUNDS pp pp pp
0.0000000000000000e+00 2.2430000000000000e+01
0.0000000000000000e+00 5.0000000000000000e+00
0.0000000000000000e+00 5.0000000000000000e+00
ITEM: ATOMS id type xs ys zs
1 1 0.0816816 0.388791 0.453341
2 1 0.104569 0.430507 0.647885
3 1 0.153259 0.334038 0.628317
4 1 0.206309 0.349338 0.562058
5 1 0.220663 0.569516 0.598961
6 1 0.27262 0.519013 0.685437
7 1 0.32434 0.472835 0.749861
8 1 0.37907 0.518282 0.729194
9 1 0.417425 0.49539 0.555969
10 1 0.480822 0.508518 0.556464
11 1 0.535167 0.565269 0.477936
12 1 0.57629 0.497088 0.352022
13 1 0.628734 0.539052 0.351955
14 1 0.676498 0.611602 0.375553
15 1 0.717517 0.578815 0.243031
16 1 0.769601 0.500545 0.239087
17 1 0.822823 0.518443 0.333079
18 1 0.833464 0.628216 0.544766
19 1 0.874162 0.48169 0.432035
20 1 0.924987 0.493053 0.483049
ITEM: TIMESTEP
700
ITEM: NUMBER OF ATOMS
20
ITEM: BOX BOUNDS pp pp pp
0.0000000000000000e+00 2.2430000000000000e+01
0.0000000000000000e+00 5.0000000000000000e+00
0.0000000000000000e+00 5.0000000000000000e+00
ITEM: ATOMS id type xs ys zs
1 1 0.0978114 0.385006 0.484481
2 1 0.114834 0.416044 0.69441
3 1 0.157542 0.273538 0.63448
4 1 0.204196 0.356605 0.516597
5 1 0.234475 0.525421 0.592836
6 1 0.271985 0.606196 0.763665
7 1 0.323022 0.523281 0.746796
8 1 0.377755 0.442866 0.691656
9 1 0.43308 0.447148 0.625984
10 1 0.472047 0.543055 0.453692
11 1 0.522877 0.61253 0.467806
12 1 0.576078 0.552627 0.348051
13 1 0.629418 0.495627 0.493946
14 1 0.674288 0.548419 0.336155
15 1 0.726067 0.606858 0.232361
16 1 0.772779 0.449756 0.246769
17 1 0.816795 0.609254 0.274805
18 1 0.822319 0.640804 0.493172
19 1 0.861894 0.50168 0.425463
20 1 0.910736 0.463286 0.476875
ITEM: TIMESTEP
800
ITEM: NUMBER OF ATOMS
20
ITEM: BOX BOUNDS pp pp pp
0.0000000000000000e+00 2.2430000000000000e+01
0.0000000000000000e+00 5.0000000000000000e+00
0.0000000000000000e+00 5.0000000000000000e+00
ITEM: ATOMS id type xs ys zs
1 1 0.113647 0.378642 0.496174
2 1 0.128691 0.382425 0.74648
3 1 0.162747 0.260954 0.626349
4 1 0.204062 0.367049 0.515884
5 1 0.247211 0.490864 0.617034
6 1 0.284904 0.617874 0.767937
7 1 0.333945 0.547677 0.724386
8 1 0.383024 0.435604 0.646954
9 1 0.438251 0.455532 0.642605
10 1 0.465393 0.553605 0.44648
11 1 0.517844 0.584506 0.400839
12 1 0.572071 0.608256 0.508512
13 1 0.626613 0.524983 0.446218
14 1 0.671144 0.485686 0.327773
15 1 0.71909 0.543106 0.281456
16 1 0.768049 0.508219 0.246755
17 1 0.803937 0.647063 0.221045
18 1 0.810045 0.660611 0.452429
19 1 0.848572 0.515869 0.408837
20 1 0.900759 0.431474 0.475851
ITEM: TIMESTEP
900
ITEM: NUMBER OF ATOMS
20
ITEM: BOX BOUNDS pp pp pp
0.0000000000000000e+00 2.2430000000000000e+01
0.0000000000000000e+00 5.0000000000000000e+00
0.0000000000000000e+00 5.0000000000000000e+00
ITEM: ATOMS id type xs ys zs
1 1 0.129699 0.373621 0.538266
2 1 0.137604 0.355332 0.771782
3 1 0.172885 0.255597 0.593001
4 1 0.211004 0.418255 0.559521
5 1 0.256641 0.447444 0.667725
6 1 0.297466 0.56427 0.702671
7 1 0.344804 0.565389 0.694941
8 1 0.388698 0.466431 0.625147
9 1 0.435814 0.479964 0.610395
10 1 0.475357 0.556443 0.479627
11 1 0.525772 0.551748 0.407461
12 1 0.564198 0.604982 0.546694
13 1 0.605729 0.575644 0.422751
14 1 0.649211 0.44191 0.348557
15 1 0.71042 0.478127 0.340479
16 1 0.764726 0.542227 0.239532
17 1 0.801588 0.71421 0.165452
18 1 0.8016 0.670154 0.415941
19 1 0.839381 0.5308 0.39984
20 1 0.8874 0.407453 0.470218
ITEM: TIMESTEP
1000
ITEM: NUMBER OF ATOMS
20
ITEM: BOX BOUNDS pp pp pp
0.0000000000000000e+00 2.2430000000000000e+01
0.0000000000000000e+00 5.0000000000000000e+00
0.0000000000000000e+00 5.0000000000000000e+00
ITEM: ATOMS id type xs ys zs
1 1 0.143952 0.367483 0.557833
2 1 0.15243 0.314867 0.793189
3 1 0.176428 0.268374 0.58454
4 1 0.20961 0.449698 0.581724
5 1 0.256885 0.380958 0.707277
6 1 0.298723 0.561718 0.675372
7 1 0.358203 0.624332 0.694264
8 1 0.393457 0.443359 0.58036
9 1 0.445372 0.481131 0.609829
10 1 0.488872 0.592339 0.486479
11 1 0.538782 0.507583 0.386598
12 1 0.56522 0.597636 0.581165
13 1 0.598535 0.589581 0.381387
14 1 0.65038 0.460199 0.394015
15 1 0.699891 0.46267 0.328339
16 1 0.740489 0.579975 0.271473
17 1 0.783205 0.705375 0.14993
18 1 0.793247 0.684769 0.384522
19 1 0.831979 0.538111 0.387564
20 1 0.874341 0.389842 0.46414
ITEM: TIMESTEP
1100
ITEM: NUMBER OF ATOMS
20
ITEM: BOX BOUNDS pp pp pp
0.0000000000000000e+00 2.2430000000000000e+01
0.0000000000000000e+00 5.0000000000000000e+00
0.0000000000000000e+00 5.0000000000000000e+00
ITEM: ATOMS id type xs ys zs
15 1 0.686242 0.457289 0.300381
16 1 0.711296 0.673869 0.326719
17 1 0.757692 0.643624 0.140946
3 1 0.1842 0.288775 0.581781
1 1 0.16155 0.361822 0.588463
4 1 0.217319 0.458468 0.640394
8 1 0.401364 0.499359 0.578008
9 1 0.454765 0.51202 0.571953
10 1 0.503298 0.56208 0.501236
11 1 0.542436 0.491323 0.392828
12 1 0.572961 0.587018 0.580755
13 1 0.596229 0.563045 0.366752
14 1 0.649611 0.525389 0.444156
19 1 0.824081 0.545153 0.369664
20 1 0.857064 0.373442 0.455454
18 1 0.778548 0.689102 0.345697
2 1 0.168266 0.272201 0.806336
5 1 0.269016 0.42079 0.703735
6 1 0.310911 0.489695 0.672647
7 1 0.353149 0.585537 0.632096
ITEM: TIMESTEP
1200
ITEM: NUMBER OF ATOMS
20
ITEM: BOX BOUNDS pp pp pp
0.0000000000000000e+00 2.2430000000000000e+01
0.0000000000000000e+00 5.0000000000000000e+00
0.0000000000000000e+00 5.0000000000000000e+00
ITEM: ATOMS id type xs ys zs
15 1 0.672945 0.490963 0.281837
16 1 0.689727 0.710528 0.328229
17 1 0.714667 0.59976 0.190146
3 1 0.187845 0.308744 0.586169
1 1 0.181118 0.347994 0.619761
4 1 0.215466 0.493083 0.694975
8 1 0.411672 0.550939 0.586252
9 1 0.463084 0.557442 0.505111
10 1 0.518033 0.52861 0.551579
11 1 0.556 0.468226 0.390069
12 1 0.576722 0.569172 0.571109
13 1 0.602663 0.54263 0.369076
14 1 0.644909 0.58373 0.466646
19 1 0.814195 0.546951 0.35919
20 1 0.835381 0.376755 0.436618
18 1 0.76679 0.685255 0.301011
2 1 0.187712 0.22417 0.808867
5 1 0.271775 0.410508 0.731979
6 1 0.327316 0.412331 0.667835
7 1 0.361979 0.59221 0.553542
ITEM: TIMESTEP
1300
ITEM: NUMBER OF ATOMS
20
ITEM: BOX BOUNDS pp pp pp
0.0000000000000000e+00 2.2430000000000000e+01
0.0000000000000000e+00 5.0000000000000000e+00
0.0000000000000000e+00 5.0000000000000000e+00
ITEM: ATOMS id type xs ys zs
15 1 0.658596 0.535403 0.271688
16 1 0.668144 0.734152 0.348047
17 1 0.694023 0.583158 0.248824
3 1 0.196233 0.335516 0.631411
1 1 0.198711 0.351174 0.634511
4 1 0.232258 0.462995 0.734379
8 1 0.419023 0.585315 0.556244
9 1 0.47519 0.580221 0.495769
10 1 0.524705 0.509734 0.551507
11 1 0.561979 0.447092 0.392307
12 1 0.582194 0.559099 0.570177
13 1 0.605799 0.524028 0.371591
14 1 0.645842 0.63838 0.491229
19 1 0.796504 0.575891 0.337403
20 1 0.815592 0.379317 0.420197
18 1 0.748014 0.626959 0.235114
2 1 0.204464 0.181909 0.802699
5 1 0.279413 0.436431 0.716832
6 1 0.327009 0.401651 0.659284
7 1 0.366306 0.551576 0.530789
ITEM: TIMESTEP
1400
ITEM: NUMBER OF ATOMS
20
ITEM: BOX BOUNDS pp pp pp
0.0000000000000000e+00 2.2430000000000000e+01
0.0000000000000000e+00 5.0000000000000000e+00
0.0000000000000000e+00 5.0000000000000000e+00
ITEM: ATOMS id type xs ys zs
15 1 0.642631 0.570424 0.287566
16 1 0.65182 0.773861 0.364737
17 1 0.680506 0.570074 0.296482
3 1 0.196427 0.344044 0.669801
1 1 0.215828 0.344493 0.652818
4 1 0.239148 0.456353 0.800068
8 1 0.422711 0.61998 0.462144
9 1 0.476775 0.58851 0.548535
10 1 0.523615 0.497031 0.526331
11 1 0.564685 0.42799 0.400234
12 1 0.588014 0.553811 0.576347
13 1 0.613008 0.497252 0.36959
14 1 0.64415 0.683105 0.480713
19 1 0.775626 0.612417 0.304899
20 1 0.796614 0.376838 0.405685
18 1 0.726741 0.569573 0.204437
2 1 0.220339 0.149978 0.779885
5 1 0.292179 0.469859 0.701535
6 1 0.341856 0.403875 0.617548
7 1 0.387325 0.490533 0.550643
ITEM: TIMESTEP
1500
ITEM: NUMBER OF ATOMS
20
ITEM: BOX BOUNDS pp pp pp
0.0000000000000000e+00 2.2430000000000000e+01
0.0000000000000000e+00 5.0000000000000000e+00
0.0000000000000000e+00 5.0000000000000000e+00
ITEM: ATOMS id type xs ys zs
15 1 0.624632 0.572682 0.282234
16 1 0.641347 0.802267 0.373134
17 1 0.668695 0.580161 0.346783
3 1 0.207786 0.342631 0.741356
1 1 0.232456 0.360964 0.661748
4 1 0.25227 0.437074 0.806754
8 1 0.433059 0.631412 0.413491
9 1 0.473198 0.598145 0.56561
10 1 0.519397 0.493105 0.514535
11 1 0.569927 0.411472 0.404941
12 1 0.593287 0.551535 0.581706
13 1 0.62719 0.511207 0.373618
14 1 0.638626 0.693561 0.47237
19 1 0.752868 0.602661 0.276717
20 1 0.77599 0.414991 0.376425
18 1 0.706696 0.521573 0.200453
2 1 0.231654 0.127121 0.756441
5 1 0.298218 0.477927 0.698038
6 1 0.348949 0.411014 0.605539
7 1 0.403755 0.458499 0.548105
ITEM: TIMESTEP
1600
ITEM: NUMBER OF ATOMS
20
ITEM: BOX BOUNDS pp pp pp
0.0000000000000000e+00 2.2430000000000000e+01
0.0000000000000000e+00 5.0000000000000000e+00
0.0000000000000000e+00 5.0000000000000000e+00
ITEM: ATOMS id type xs ys zs
15 1 0.604786 0.589487 0.290351
16 1 0.630653 0.804704 0.377343
17 1 0.672265 0.628873 0.394469
3 1 0.219407 0.339049 0.813618
1 1 0.251065 0.360134 0.678819
4 1 0.270366 0.420449 0.80615
8 1 0.439821 0.592042 0.402947
9 1 0.476557 0.589052 0.570896
10 1 0.515109 0.491233 0.479371
11 1 0.566327 0.419039 0.441035
12 1 0.603663 0.554358 0.574089
13 1 0.624696 0.490248 0.383018
14 1 0.63188 0.703781 0.466914
19 1 0.72946 0.596109 0.247799
20 1 0.75464 0.447331 0.346413
18 1 0.685517 0.473038 0.195086
2 1 0.24349 0.126198 0.719932
5 1 0.313243 0.452741 0.677221
6 1 0.361162 0.47506 0.60952
7 1 0.405892 0.447071 0.525011
ITEM: TIMESTEP
1700
ITEM: NUMBER OF ATOMS
20
ITEM: BOX BOUNDS pp pp pp
0.0000000000000000e+00 2.2430000000000000e+01
0.0000000000000000e+00 5.0000000000000000e+00
0.0000000000000000e+00 5.0000000000000000e+00
ITEM: ATOMS id type xs ys zs
15 1 0.580577 0.618431 0.313651
16 1 0.620798 0.740152 0.383104
17 1 0.667425 0.656427 0.380646
3 1 0.236008 0.286882 0.89527
1 1 0.276355 0.377447 0.696
4 1 0.283254 0.393157 0.820532
8 1 0.452338 0.567071 0.369898
9 1 0.475544 0.589495 0.583356
10 1 0.515778 0.481649 0.446964
11 1 0.569267 0.45619 0.474709
12 1 0.61015 0.554508 0.562288
13 1 0.625981 0.472983 0.401635
14 1 0.623545 0.715103 0.464244
19 1 0.699588 0.618238 0.194996
20 1 0.734658 0.464087 0.32864
18 1 0.660058 0.458931 0.231829
2 1 0.252056 0.157962 0.704163
5 1 0.323423 0.427337 0.63946
6 1 0.375861 0.526356 0.609124
7 1 0.417334 0.437593 0.499494
ITEM: TIMESTEP
1800
ITEM: NUMBER OF ATOMS
20
ITEM: BOX BOUNDS pp pp pp
0.0000000000000000e+00 2.2430000000000000e+01
0.0000000000000000e+00 5.0000000000000000e+00
0.0000000000000000e+00 5.0000000000000000e+00
ITEM: ATOMS id type xs ys zs
15 1 0.555945 0.652668 0.355513
16 1 0.614076 0.690261 0.413241
17 1 0.662885 0.627058 0.352023
3 1 0.263091 0.256947 0.92748
1 1 0.295875 0.374978 0.718797
4 1 0.299103 0.349359 0.799302
8 1 0.463815 0.531473 0.337855
9 1 0.478376 0.576941 0.585424
10 1 0.519996 0.481695 0.423771
11 1 0.57397 0.510629 0.520791
12 1 0.608075 0.622512 0.613459
13 1 0.617599 0.451635 0.401815
14 1 0.605035 0.662784 0.423068
19 1 0.678886 0.647799 0.153106
20 1 0.711975 0.496059 0.301216
18 1 0.646973 0.444737 0.223861
2 1 0.260638 0.21346 0.705284
5 1 0.337975 0.417877 0.654197
6 1 0.381959 0.546528 0.612975
7 1 0.423753 0.444599 0.476821
ITEM: TIMESTEP
1900
ITEM: NUMBER OF ATOMS
20
ITEM: BOX BOUNDS pp pp pp
0.0000000000000000e+00 2.2430000000000000e+01
0.0000000000000000e+00 5.0000000000000000e+00
0.0000000000000000e+00 5.0000000000000000e+00
ITEM: ATOMS id type xs ys zs
15 1 0.541114 0.696097 0.393597
16 1 0.595014 0.63543 0.374892
17 1 0.647366 0.622658 0.363583
3 1 0.285963 0.237755 0.933731
1 1 0.301391 0.390471 0.772464
4 1 0.312694 0.304045 0.740004
8 1 0.470723 0.500634 0.326795
9 1 0.48593 0.556436 0.556262
10 1 0.521755 0.501542 0.431464
11 1 0.571041 0.520273 0.52996
12 1 0.616976 0.620261 0.625759
13 1 0.61928 0.449053 0.477961
14 1 0.59837 0.687767 0.394315
19 1 0.659109 0.636643 0.140576
20 1 0.692041 0.530799 0.270626
18 1 0.635011 0.438219 0.201784
2 1 0.262704 0.225507 0.732057
5 1 0.358461 0.411596 0.673797
6 1 0.395337 0.573245 0.599704
7 1 0.42972 0.461569 0.460672
ITEM: TIMESTEP
2000
ITEM: NUMBER OF ATOMS
20
ITEM: BOX BOUNDS pp pp pp
0.0000000000000000e+00 2.2430000000000000e+01
0.0000000000000000e+00 5.0000000000000000e+00
0.0000000000000000e+00 5.0000000000000000e+00
ITEM: ATOMS id type xs ys zs
16 1 0.575832 0.577741 0.302871
18 1 0.620624 0.451099 0.22291
19 1 0.638221 0.639016 0.12311
20 1 0.675115 0.555052 0.254128
6 1 0.403677 0.59413 0.604298
7 1 0.433834 0.47083 0.45165
8 1 0.483176 0.48448 0.334505
9 1 0.483941 0.538306 0.517587
10 1 0.532581 0.501656 0.420395
11 1 0.571965 0.546775 0.551895
12 1 0.618424 0.644376 0.645035
13 1 0.613858 0.442883 0.482482
14 1 0.590048 0.637896 0.400904
17 1 0.630523 0.638788 0.354457
15 1 0.543494 0.735624 0.443607
3 1 0.310887 0.211489 0.924468
2 1 0.264741 0.258651 0.767841
4 1 0.328812 0.270268 0.699578
1 1 0.307351 0.393413 0.811721
5 1 0.372895 0.407528 0.686557
ITEM: TIMESTEP
2100
ITEM: NUMBER OF ATOMS
20
ITEM: BOX BOUNDS pp pp pp
0.0000000000000000e+00 2.2430000000000000e+01
0.0000000000000000e+00 5.0000000000000000e+00
0.0000000000000000e+00 5.0000000000000000e+00
ITEM: ATOMS id type xs ys zs
16 1 0.564467 0.589745 0.291709
18 1 0.603097 0.456379 0.260846
19 1 0.613348 0.638152 0.106754
20 1 0.658329 0.57999 0.24591
6 1 0.414017 0.583676 0.591802
7 1 0.44802 0.494725 0.430215
8 1 0.484342 0.445241 0.290997
9 1 0.490608 0.536013 0.532938
10 1 0.531268 0.515111 0.424004
11 1 0.569872 0.587599 0.577508
12 1 0.626753 0.642125 0.615716
13 1 0.608509 0.414853 0.521112
14 1 0.582747 0.573039 0.379569
17 1 0.604605 0.686125 0.345908
15 1 0.545573 0.728669 0.462632
3 1 0.324382 0.19852 0.878596
2 1 0.272992 0.263076 0.837555
4 1 0.351065 0.241238 0.651131
1 1 0.321412 0.413437 0.852584
5 1 0.384593 0.412288 0.702513
ITEM: TIMESTEP
2200
ITEM: NUMBER OF ATOMS
20
ITEM: BOX BOUNDS pp pp pp
0.0000000000000000e+00 2.2430000000000000e+01
0.0000000000000000e+00 5.0000000000000000e+00
0.0000000000000000e+00 5.0000000000000000e+00
ITEM: ATOMS id type xs ys zs
16 1 0.544321 0.630239 0.257697
18 1 0.604209 0.458916 0.283139
19 1 0.586237 0.640858 0.10552
20 1 0.63443 0.613903 0.229798
6 1 0.418697 0.583561 0.609558
7 1 0.461206 0.545965 0.419389
8 1 0.498648 0.408324 0.29347
9 1 0.477539 0.516726 0.50983
10 1 0.531056 0.459436 0.465282
11 1 0.571971 0.58731 0.558646
12 1 0.626975 0.627661 0.556714
13 1 0.603131 0.417717 0.527268
14 1 0.57861 0.596941 0.443585
17 1 0.59445 0.643407 0.347668
15 1 0.537796 0.761221 0.436322
3 1 0.338799 0.191101 0.808972
2 1 0.291811 0.280885 0.912081
4 1 0.372687 0.221713 0.635117
1 1 0.332252 0.41618 0.891202
5 1 0.395175 0.397937 0.708742
ITEM: TIMESTEP
2300
ITEM: NUMBER OF ATOMS
20
ITEM: BOX BOUNDS pp pp pp
0.0000000000000000e+00 2.2430000000000000e+01
0.0000000000000000e+00 5.0000000000000000e+00
0.0000000000000000e+00 5.0000000000000000e+00
ITEM: ATOMS id type xs ys zs
16 1 0.529057 0.649212 0.221076
18 1 0.599181 0.452374 0.261646
19 1 0.562067 0.572555 0.177536
20 1 0.612257 0.653379 0.244357
6 1 0.434335 0.575605 0.584047
7 1 0.472253 0.561469 0.436089
8 1 0.508812 0.424748 0.324687
9 1 0.469281 0.491931 0.465318
10 1 0.523583 0.419591 0.558699
11 1 0.564605 0.557702 0.547409
12 1 0.61283 0.617327 0.463091
13 1 0.59764 0.424098 0.494443
14 1 0.585129 0.654376 0.465318
17 1 0.577126 0.689545 0.31902
15 1 0.537439 0.761541 0.453365
3 1 0.34663 0.206524 0.744818
2 1 0.319621 0.263717 0.962763
4 1 0.389009 0.180739 0.621692
1 1 0.351412 0.429794 0.930218
5 1 0.407731 0.413774 0.724407
ITEM: TIMESTEP
2400
ITEM: NUMBER OF ATOMS
20
ITEM: BOX BOUNDS pp pp pp
0.0000000000000000e+00 2.2430000000000000e+01
0.0000000000000000e+00 5.0000000000000000e+00
0.0000000000000000e+00 5.0000000000000000e+00
ITEM: ATOMS id type xs ys zs
16 1 0.514958 0.655396 0.237668
18 1 0.59865 0.504321 0.288412
19 1 0.547084 0.573926 0.244772
20 1 0.581963 0.673927 0.17616
6 1 0.444967 0.553846 0.576825
7 1 0.483786 0.58161 0.446784
8 1 0.517556 0.431957 0.343041
9 1 0.473397 0.472716 0.458049
10 1 0.512983 0.422168 0.607631
11 1 0.554232 0.535194 0.549521
12 1 0.598953 0.64323 0.469237
13 1 0.583259 0.41097 0.466405
14 1 0.592796 0.639868 0.452511
17 1 0.569584 0.698424 0.24794
15 1 0.540245 0.70372 0.442354
3 1 0.350372 0.234754 0.718619
2 1 0.347218 0.217958 0.964442
4 1 0.401413 0.177529 0.651368
1 1 0.370231 0.458425 0.953869
5 1 0.416352 0.410062 0.704393
ITEM: TIMESTEP
2500
ITEM: NUMBER OF ATOMS
20
ITEM: BOX BOUNDS pp pp pp
0.0000000000000000e+00 2.2430000000000000e+01
0.0000000000000000e+00 5.0000000000000000e+00
0.0000000000000000e+00 5.0000000000000000e+00
ITEM: ATOMS id type xs ys zs
16 1 0.510358 0.629252 0.24862
18 1 0.592761 0.540492 0.248164
19 1 0.548156 0.565145 0.279633
20 1 0.564324 0.721037 0.0895834
6 1 0.453519 0.550175 0.575965
7 1 0.500483 0.614725 0.458509
8 1 0.52371 0.392345 0.392502
9 1 0.474939 0.470469 0.460387
10 1 0.498168 0.418175 0.647862
11 1 0.549001 0.467642 0.534846
12 1 0.58548 0.648662 0.465375
13 1 0.566561 0.428523 0.459625
14 1 0.590362 0.644451 0.459062
17 1 0.557386 0.701138 0.209815
15 1 0.540523 0.72623 0.455376
3 1 0.357386 0.258918 0.71732
2 1 0.374819 0.20861 0.933241
4 1 0.408482 0.172356 0.678517
1 1 0.383922 0.453312 0.972221
5 1 0.41966 0.388342 0.713377
ITEM: TIMESTEP
2600
ITEM: NUMBER OF ATOMS
20
ITEM: BOX BOUNDS pp pp pp
0.0000000000000000e+00 2.2430000000000000e+01
0.0000000000000000e+00 5.0000000000000000e+00
0.0000000000000000e+00 5.0000000000000000e+00
ITEM: ATOMS id type xs ys zs
16 1 0.513072 0.592271 0.305876
18 1 0.597947 0.572487 0.232101
19 1 0.543865 0.568766 0.288864
20 1 0.53453 0.712839 0.0811501
6 1 0.461176 0.521803 0.576479
7 1 0.507848 0.603131 0.540937
8 1 0.513598 0.366692 0.396424
9 1 0.469197 0.497335 0.452003
10 1 0.498867 0.418692 0.6643
11 1 0.542275 0.452357 0.505586
12 1 0.564719 0.663646 0.442752
13 1 0.561856 0.407805 0.435306
14 1 0.583333 0.658379 0.456994
17 1 0.560539 0.699538 0.19208
15 1 0.535675 0.764848 0.421232
3 1 0.368387 0.275807 0.721921
2 1 0.40161 0.221896 0.903016
4 1 0.414082 0.184067 0.705617
1 1 0.400342 0.425103 0.972475
5 1 0.427083 0.392536 0.704886
ITEM: TIMESTEP
2700
ITEM: NUMBER OF ATOMS
20
ITEM: BOX BOUNDS pp pp pp
0.0000000000000000e+00 2.2430000000000000e+01
0.0000000000000000e+00 5.0000000000000000e+00
0.0000000000000000e+00 5.0000000000000000e+00
ITEM: ATOMS id type xs ys zs
16 1 0.52875 0.568104 0.33247
18 1 0.588665 0.575158 0.270113
19 1 0.539411 0.506162 0.225887
20 1 0.504354 0.664738 0.136998
6 1 0.463096 0.525047 0.554358
7 1 0.509428 0.589919 0.534638
8 1 0.506509 0.387264 0.438787
9 1 0.460805 0.547023 0.513796
10 1 0.510359 0.431168 0.594072
11 1 0.551651 0.426782 0.441842
12 1 0.554607 0.6777 0.473473
13 1 0.560975 0.427526 0.405518
14 1 0.565968 0.660043 0.447483
17 1 0.543146 0.725056 0.201161
15 1 0.530466 0.793425 0.412805
3 1 0.382121 0.287552 0.756572
2 1 0.42638 0.219884 0.834059
4 1 0.422429 0.15475 0.73497
1 1 0.420099 0.419792 0.963048
5 1 0.430783 0.412909 0.727951
ITEM: TIMESTEP
2800
ITEM: NUMBER OF ATOMS
20
ITEM: BOX BOUNDS pp pp pp
0.0000000000000000e+00 2.2430000000000000e+01
0.0000000000000000e+00 5.0000000000000000e+00
0.0000000000000000e+00 5.0000000000000000e+00
ITEM: ATOMS id type xs ys zs
16 1 0.525344 0.596634 0.307344
18 1 0.571793 0.589642 0.278352
19 1 0.525217 0.460614 0.198246
20 1 0.479869 0.595475 0.231063
6 1 0.463422 0.51006 0.548066
7 1 0.512057 0.60464 0.555829
8 1 0.496487 0.390254 0.487573
9 1 0.46567 0.545078 0.56948
10 1 0.519623 0.464224 0.493797
11 1 0.561535 0.413604 0.403227
12 1 0.561118 0.654995 0.485949
13 1 0.549988 0.435392 0.400746
14 1 0.552797 0.66979 0.480283
17 1 0.549822 0.776461 0.185291
15 1 0.509112 0.779602 0.382515
3 1 0.395144 0.309814 0.789818
2 1 0.446417 0.232171 0.764806
4 1 0.436658 0.163832 0.761228
1 1 0.438851 0.407722 0.945816
5 1 0.439078 0.399998 0.730571
ITEM: TIMESTEP
2900
ITEM: NUMBER OF ATOMS
20
ITEM: BOX BOUNDS pp pp pp
0.0000000000000000e+00 2.2430000000000000e+01
0.0000000000000000e+00 5.0000000000000000e+00
0.0000000000000000e+00 5.0000000000000000e+00
ITEM: ATOMS id type xs ys zs
16 1 0.535614 0.593562 0.282643
18 1 0.559601 0.596431 0.233323
19 1 0.5135 0.472952 0.239697
20 1 0.469057 0.523313 0.326901
6 1 0.459469 0.489612 0.512325
7 1 0.512284 0.602181 0.555364
8 1 0.497223 0.367411 0.491792
9 1 0.476281 0.546844 0.608499
10 1 0.510906 0.533614 0.43346
11 1 0.559879 0.426365 0.41676
12 1 0.560303 0.625978 0.501132
13 1 0.537175 0.446218 0.418159
14 1 0.549432 0.684848 0.418414
17 1 0.543586 0.815446 0.191787
15 1 0.497891 0.734268 0.40562
3 1 0.408296 0.330716 0.839699
2 1 0.458742 0.277147 0.715689
4 1 0.448693 0.174553 0.777149
1 1 0.454546 0.376654 0.927153
5 1 0.447522 0.381888 0.704435
ITEM: TIMESTEP
3000
ITEM: NUMBER OF ATOMS
20
ITEM: BOX BOUNDS pp pp pp
0.0000000000000000e+00 2.2430000000000000e+01
0.0000000000000000e+00 5.0000000000000000e+00
0.0000000000000000e+00 5.0000000000000000e+00
ITEM: ATOMS id type xs ys zs
16 1 0.543598 0.641858 0.284698
18 1 0.55026 0.625836 0.184245
19 1 0.511284 0.456501 0.210403
20 1 0.464239 0.505016 0.325711
6 1 0.460133 0.534732 0.547103
7 1 0.509873 0.549037 0.546979
8 1 0.481403 0.340469 0.490805
9 1 0.479013 0.538704 0.6821
10 1 0.503705 0.517565 0.487477
11 1 0.551166 0.427023 0.403212
12 1 0.555571 0.644421 0.495289
13 1 0.540052 0.459908 0.403582
14 1 0.542455 0.689417 0.392636
17 1 0.538741 0.859623 0.188587
15 1 0.49163 0.681283 0.330313
3 1 0.431608 0.347754 0.851147
2 1 0.463269 0.354537 0.67528
4 1 0.460897 0.120263 0.827785
1 1 0.470525 0.347714 0.928105
5 1 0.45058 0.358338 0.744542
ITEM: TIMESTEP
3100
ITEM: NUMBER OF ATOMS
20
ITEM: BOX BOUNDS pp pp pp
0.0000000000000000e+00 2.2430000000000000e+01
0.0000000000000000e+00 5.0000000000000000e+00
0.0000000000000000e+00 5.0000000000000000e+00
ITEM: ATOMS id type xs ys zs
20 1 0.45964 0.468494 0.320929
16 1 0.541903 0.673727 0.276261
18 1 0.536688 0.638921 0.165653
19 1 0.508262 0.457257 0.217714
15 1 0.487385 0.643678 0.2432
17 1 0.535941 0.886622 0.19585
6 1 0.459259 0.52879 0.616121
8 1 0.472894 0.41368 0.529248
7 1 0.507482 0.553993 0.520344
10 1 0.500517 0.524323 0.453308
11 1 0.546305 0.46611 0.355405
12 1 0.552086 0.642362 0.514187
13 1 0.54819 0.46215 0.373043
14 1 0.533499 0.65676 0.390549
4 1 0.467557 0.149616 0.851792
3 1 0.448721 0.33307 0.970156
9 1 0.486771 0.539163 0.691819
2 1 0.462411 0.29943 0.704351
1 1 0.490715 0.327439 0.892597
5 1 0.453775 0.334414 0.717472
ITEM: TIMESTEP
3200
ITEM: NUMBER OF ATOMS
20
ITEM: BOX BOUNDS pp pp pp
0.0000000000000000e+00 2.2430000000000000e+01
0.0000000000000000e+00 5.0000000000000000e+00
0.0000000000000000e+00 5.0000000000000000e+00
ITEM: ATOMS id type xs ys zs
20 1 0.45235 0.446937 0.293991
16 1 0.536297 0.700231 0.278035
18 1 0.522311 0.641148 0.141136
19 1 0.502603 0.427132 0.212322
15 1 0.484998 0.663325 0.223328
17 1 0.530612 0.898698 0.185741
6 1 0.472892 0.521428 0.693493
8 1 0.462024 0.433931 0.546803
7 1 0.49857 0.558083 0.459368
10 1 0.489337 0.508505 0.426348
11 1 0.536475 0.497416 0.352867
12 1 0.552074 0.647242 0.518977
13 1 0.55845 0.490505 0.361485
14 1 0.532428 0.704238 0.361886
4 1 0.480226 0.149885 0.892431
3 1 0.467861 0.335523 0.0265434
9 1 0.494526 0.50825 0.661135
2 1 0.451224 0.243235 0.840219
1 1 0.513019 0.331554 0.836318
5 1 0.461722 0.292734 0.687575
ITEM: TIMESTEP
3300
ITEM: NUMBER OF ATOMS
20
ITEM: BOX BOUNDS pp pp pp
0.0000000000000000e+00 2.2430000000000000e+01
0.0000000000000000e+00 5.0000000000000000e+00
0.0000000000000000e+00 5.0000000000000000e+00
ITEM: ATOMS id type xs ys zs
20 1 0.450528 0.440815 0.274524
16 1 0.532872 0.710449 0.316604
18 1 0.50617 0.678155 0.148106
19 1 0.505663 0.460577 0.255367
15 1 0.47982 0.66034 0.24488
17 1 0.521869 0.886622 0.124541
6 1 0.490306 0.47559 0.645454
8 1 0.44595 0.453356 0.555162
7 1 0.487137 0.545357 0.439456
10 1 0.486762 0.519678 0.439537
11 1 0.539256 0.4896 0.385035
12 1 0.548329 0.666514 0.508438
13 1 0.560561 0.531141 0.301355
14 1 0.5212 0.693614 0.378884
4 1 0.487387 0.19902 0.901001
3 1 0.487752 0.320885 0.0948649
9 1 0.502327 0.459532 0.61093
2 1 0.46834 0.21496 0.915365
1 1 0.512115 0.341471 0.795865
5 1 0.465655 0.252323 0.664631
ITEM: TIMESTEP
3400
ITEM: NUMBER OF ATOMS
20
ITEM: BOX BOUNDS pp pp pp
0.0000000000000000e+00 2.2430000000000000e+01
0.0000000000000000e+00 5.0000000000000000e+00
0.0000000000000000e+00 5.0000000000000000e+00
ITEM: ATOMS id type xs ys zs
20 1 0.458671 0.453643 0.26486
16 1 0.516216 0.72532 0.284119
18 1 0.495852 0.679189 0.187554
19 1 0.513636 0.448926 0.243902
15 1 0.467689 0.684506 0.241613
17 1 0.520777 0.892667 0.113302
6 1 0.506555 0.395627 0.581511
8 1 0.447069 0.468848 0.584609
7 1 0.483434 0.544475 0.428232
10 1 0.486741 0.545554 0.432978
11 1 0.533843 0.462545 0.446215
12 1 0.550804 0.696824 0.517476
13 1 0.554992 0.577597 0.299282
14 1 0.516122 0.719372 0.380576
4 1 0.488555 0.267647 0.878209
3 1 0.495334 0.278221 0.109093
9 1 0.498103 0.381732 0.604635
2 1 0.485852 0.200258 0.904202
1 1 0.5175 0.342734 0.835525
5 1 0.462255 0.234316 0.662107