ITEM: TIMESTEP
0
ITEM: NUMBER OF ATOMS
20
ITEM: BOX BOUNDS pp pp pp
0.0000000000000000e+00 2.2430000000000000e+01
0.0000000000000000e+00 5.0000000000000000e+00
0.0000000000000000e+00 5.0000000000000000e+00
ITEM: ATOMS id type xs ys zs
1 1 0.0891663 0.5 0.5
2 1 0.132412 0.5 0.5
3 1 0.175658 0.5 0.5
4 1 0.218903 0.5 0.5
5 1 0.262149 0.5 0.5
6 1 0.305395 0.5 0.5
7 1 0.34864 0.5 0.5
8 1 0.391886 0.5 0.5
9 1 0.435132 0.5 0.5
10 1 0.478377 0.5 0.5
11 1 0.521623 0.5 0.5
12 1 0.564868 0.5 0.5
13 1 0.608114 0.5 0.5
14 1 0.65136 0.5 0.5
15 1 0.694605 0.5 0.5
16 1 0.737851 0.5 0.5
17 1 0.781097 0.5 0.5
18 1 0.824342 0.5 0.5
19 1 0.867588 0.5 0.5
20 1 0.910834 0.5 0.5
ITEM: TIMESTEP
100
ITEM: NUMBER OF ATOMS
20
ITEM: BOX BOUNDS pp pp pp
0.0000000000000000e+00 2.2430000000000000e+01
0.0000000000000000e+00 5.0000000000000000e+00
0.0000000000000000e+00 5.0000000000000000e+00
ITEM: ATOMS id type xs ys zs
1 1 0.0597948 0.465945 0.472184
2 1 0.113644 0.476032 0.452143
3 1 0.164182 0.492112 0.561591
4 1 0.215731 0.519263 0.579759
5 1 0.260145 0.442582 0.567759
6 1 0.305473 0.489184 0.537329
7 1 0.349801 0.484335 0.472817
8 1 0.393183 0.562982 0.508282
9 1 0.437492 0.488575 0.609553
10 1 0.479251 0.546556 0.457076
11 1 0.521554 0.416797 0.552586
12 1 0.561444 0.518682 0.42844
13 1 0.610176 0.568491 0.506758
14 1 0.652677 0.47113 0.382555
15 1 0.697601 0.562043 0.424822
16 1 0.738232 0.516529 0.509617
17 1 0.784451 0.511541 0.504248
18 1 0.83295 0.442764 0.470782
19 1 0.885647 0.489426 0.504585
20 1 0.93657 0.53503 0.497115
ITEM: TIMESTEP
200
ITEM: NUMBER OF ATOMS
20
ITEM: BOX BOUNDS pp pp pp
0.0000000000000000e+00 2.2430000000000000e+01
0.0000000000000000e+00 5.0000000000000000e+00
0.0000000000000000e+00 5.0000000000000000e+00
ITEM: ATOMS id type xs ys zs
1 1 0.0451455 0.446399 0.45335
2 1 0.0998347 0.463186 0.446495
3 1 0.146691 0.491588 0.58007
4 1 0.201356 0.527497 0.62903
5 1 0.249179 0.385819 0.621632
6 1 0.305753 0.497396 0.568657
7 1 0.359167 0.474547 0.432573
8 1 0.403398 0.591628 0.522409
9 1 0.446738 0.512651 0.627135
10 1 0.482128 0.53096 0.492942
11 1 0.521493 0.412107 0.536058
12 1 0.559692 0.520567 0.430715
13 1 0.607996 0.573827 0.460732
14 1 0.643746 0.48216 0.335468
15 1 0.690066 0.604725 0.366515
16 1 0.73526 0.526561 0.529265
17 1 0.796572 0.51304 0.511339
18 1 0.849039 0.410208 0.455441
19 1 0.901787 0.478548 0.504967
20 1 0.954959 0.556585 0.495208
ITEM: TIMESTEP
300
ITEM: NUMBER OF ATOMS
20
ITEM: BOX BOUNDS pp pp pp
0.0000000000000000e+00 2.2430000000000000e+01
0.0000000000000000e+00 5.0000000000000000e+00
0.0000000000000000e+00 5.0000000000000000e+00
ITEM: ATOMS id type xs ys zs
1 1 0.0437941 0.43669 0.439971
2 1 0.0958195 0.459677 0.480765
3 1 0.14385 0.500333 0.572332
4 1 0.196863 0.449552 0.638169
5 1 0.252226 0.48461 0.62625
6 1 0.299899 0.419937 0.545839
7 1 0.345018 0.519157 0.50591
8 1 0.399477 0.564508 0.510169
9 1 0.44399 0.53898 0.666186
10 1 0.484098 0.542006 0.484486
11 1 0.522473 0.360512 0.540277
12 1 0.55602 0.536481 0.437388
13 1 0.611146 0.595159 0.428161
14 1 0.652263 0.511095 0.296574
15 1 0.697938 0.55596 0.412413
16 1 0.752033 0.575304 0.440414
17 1 0.796495 0.463486 0.499551
18 1 0.848933 0.467126 0.491798
19 1 0.902558 0.466558 0.487544
20 1 0.955105 0.552871 0.495804
ITEM: TIMESTEP
400
ITEM: NUMBER OF ATOMS
20
ITEM: BOX BOUNDS pp pp pp
0.0000000000000000e+00 2.2430000000000000e+01
0.0000000000000000e+00 5.0000000000000000e+00
0.0000000000000000e+00 5.0000000000000000e+00
ITEM: ATOMS id type xs ys zs
1 1 0.0441565 0.431056 0.432748
2 1 0.096945 0.460408 0.511773
3 1 0.148648 0.490641 0.573055
4 1 0.199281 0.412554 0.626121
5 1 0.24777 0.529613 0.614703
6 1 0.291302 0.406093 0.547891
7 1 0.338076 0.529846 0.552622
8 1 0.393843 0.542815 0.532083
9 1 0.439918 0.562843 0.641244
10 1 0.484087 0.5276 0.515193
11 1 0.524151 0.373454 0.518867
12 1 0.55912 0.527284 0.451703
13 1 0.608236 0.590274 0.395121
14 1 0.658346 0.540661 0.302342
15 1 0.70701 0.531278 0.421025
16 1 0.759825 0.584945 0.391257
17 1 0.797728 0.436083 0.479377
18 1 0.849958 0.52148 0.526599
19 1 0.90098 0.45929 0.469856
20 1 0.950619 0.541781 0.496421
ITEM: TIMESTEP
500
ITEM: NUMBER OF ATOMS
20
ITEM: BOX BOUNDS pp pp pp
0.0000000000000000e+00 2.2430000000000000e+01
0.0000000000000000e+00 5.0000000000000000e+00
0.0000000000000000e+00 5.0000000000000000e+00
ITEM: ATOMS id type xs ys zs
1 1 0.0523543 0.430033 0.435806
2 1 0.100463 0.463936 0.54576
3 1 0.150928 0.462302 0.568447
4 1 0.199267 0.400303 0.60491
5 1 0.239922 0.548419 0.59436
6 1 0.285365 0.435513 0.552387
7 1 0.333592 0.511293 0.606388
8 1 0.385549 0.523993 0.559709
9 1 0.432831 0.580902 0.614251
10 1 0.483045 0.521422 0.534443
11 1 0.524245 0.373256 0.503147
12 1 0.567432 0.52969 0.472381
13 1 0.611812 0.562786 0.324586
14 1 0.664784 0.592995 0.375142
15 1 0.713773 0.510549 0.391627
16 1 0.763915 0.56478 0.357524
17 1 0.803524 0.446002 0.455528
18 1 0.848972 0.545658 0.54218
19 1 0.894392 0.469397 0.46773
20 1 0.943834 0.526771 0.493694
ITEM: TIMESTEP
600
ITEM: NUMBER OF ATOMS
20
ITEM: BOX BOUNDS pp pp pp
0.0000000000000000e+00 2.2430000000000000e+01
0.0000000000000000e+00 5.0000000000000000e+00
0.0000000000000000e+00 5.0000000000000000e+00
ITEM: ATOMS id type xs ys zs
1 1 0.0582226 0.426065 0.430596
2 1 0.097375 0.472446 0.591281
3 1 0.152454 0.443258 0.557675
4 1 0.206982 0.365806 0.589839
5 1 0.230685 0.57815 0.574983
6 1 0.277389 0.455586 0.563734
7 1 0.325749 0.49582 0.658426
8 1 0.380177 0.502007 0.589826
9 1 0.430946 0.61301 0.56114
10 1 0.483078 0.485087 0.585604
11 1 0.529233 0.426565 0.474834
12 1 0.578435 0.507947 0.456362
13 1 0.618543 0.544835 0.318083
14 1 0.664115 0.612684 0.416385
15 1 0.713698 0.506315 0.369327
16 1 0.769495 0.550593 0.313626
17 1 0.811947 0.447985 0.431401
18 1 0.843382 0.586999 0.573416
19 1 0.885769 0.468373 0.450617
20 1 0.942327 0.510467 0.492844
ITEM: TIMESTEP
700
ITEM: NUMBER OF ATOMS
20
ITEM: BOX BOUNDS pp pp pp
0.0000000000000000e+00 2.2430000000000000e+01
0.0000000000000000e+00 5.0000000000000000e+00
0.0000000000000000e+00 5.0000000000000000e+00
ITEM: ATOMS id type xs ys zs
1 1 0.0700394 0.428286 0.450176
2 1 0.10503 0.4645 0.606583
3 1 0.15272 0.4107 0.56688
4 1 0.203762 0.353196 0.562953
5 1 0.222065 0.585646 0.543063
6 1 0.274458 0.52058 0.607356
7 1 0.325558 0.458294 0.673391
8 1 0.377678 0.52339 0.633929
9 1 0.425676 0.544118 0.546335
10 1 0.4763 0.498128 0.573871
11 1 0.524549 0.493528 0.481623
12 1 0.584413 0.47532 0.445104
13 1 0.632558 0.53283 0.305556
14 1 0.675819 0.584012 0.463282
15 1 0.719128 0.580113 0.32108
16 1 0.766484 0.47571 0.313224
17 1 0.814844 0.492443 0.389506
18 1 0.840958 0.594822 0.56672
19 1 0.879329 0.502229 0.468356
20 1 0.928632 0.482154 0.48101
ITEM: TIMESTEP
800
ITEM: NUMBER OF ATOMS
20
ITEM: BOX BOUNDS pp pp pp
0.0000000000000000e+00 2.2430000000000000e+01
0.0000000000000000e+00 5.0000000000000000e+00
0.0000000000000000e+00 5.0000000000000000e+00
ITEM: ATOMS id type xs ys zs
1 1 0.0759881 0.426069 0.445173
2 1 0.107575 0.475881 0.654168
3 1 0.155462 0.371722 0.569172
4 1 0.209365 0.345163 0.533436
5 1 0.225273 0.573695 0.535677
6 1 0.272825 0.565521 0.640958
7 1 0.319765 0.459118 0.669674
8 1 0.373483 0.540002 0.671774
9 1 0.421032 0.455865 0.546989
10 1 0.479302 0.518144 0.520125
11 1 0.535606 0.559678 0.506904
12 1 0.581461 0.475066 0.393032
13 1 0.631282 0.505315 0.390875
14 1 0.68193 0.563564 0.439228
15 1 0.723866 0.601447 0.312572
16 1 0.763078 0.441449 0.307058
17 1 0.815703 0.53341 0.354283
18 1 0.828339 0.622744 0.578351
19 1 0.871792 0.515095 0.458652
20 1 0.926873 0.451055 0.471899
ITEM: TIMESTEP
900
ITEM: NUMBER OF ATOMS
20
ITEM: BOX BOUNDS pp pp pp
0.0000000000000000e+00 2.2430000000000000e+01
0.0000000000000000e+00 5.0000000000000000e+00
0.0000000000000000e+00 5.0000000000000000e+00
ITEM: ATOMS id type xs ys zs
1 1 0.0839335 0.430283 0.462448
2 1 0.114637 0.46014 0.657573
3 1 0.158334 0.35483 0.578516
4 1 0.206347 0.345259 0.517774
5 1 0.230195 0.555201 0.529478
6 1 0.274868 0.59756 0.675918
7 1 0.324924 0.494517 0.658375
8 1 0.378586 0.489813 0.643677
9 1 0.428905 0.461536 0.585605
10 1 0.475846 0.518658 0.492922
11 1 0.527255 0.568354 0.498737
12 1 0.575143 0.501789 0.382999
13 1 0.625263 0.483509 0.480094
14 1 0.679968 0.537905 0.396204
15 1 0.731492 0.618672 0.314378
16 1 0.766344 0.422504 0.306322
17 1 0.809838 0.570576 0.331155
18 1 0.823687 0.619808 0.549988
19 1 0.869422 0.53691 0.478978
20 1 0.915012 0.432176 0.45886
ITEM: TIMESTEP
1000
ITEM: NUMBER OF ATOMS
20
ITEM: BOX BOUNDS pp pp pp
0.0000000000000000e+00 2.2430000000000000e+01
0.0000000000000000e+00 5.0000000000000000e+00
0.0000000000000000e+00 5.0000000000000000e+00
ITEM: ATOMS id type xs ys zs
1 1 0.0916607 0.432568 0.478444
2 1 0.115498 0.462704 0.673629
3 1 0.159315 0.322625 0.587541
4 1 0.210776 0.346746 0.490767
5 1 0.240384 0.542919 0.541815
6 1 0.279696 0.606161 0.686369
7 1 0.330119 0.539543 0.648716
8 1 0.379307 0.438649 0.610715
9 1 0.434572 0.478396 0.641009
10 1 0.473313 0.519486 0.460565
11 1 0.525237 0.550287 0.45429
12 1 0.578823 0.548545 0.435883
13 1 0.628328 0.489868 0.489454
14 1 0.67236 0.526057 0.375702
15 1 0.719767 0.560848 0.340161
16 1 0.765224 0.456796 0.299083
17 1 0.803475 0.584191 0.320078
18 1 0.815376 0.633796 0.531092
19 1 0.867102 0.552235 0.487903
20 1 0.909665 0.40758 0.446782
ITEM: TIMESTEP
1100
ITEM: NUMBER OF ATOMS
20
ITEM: BOX BOUNDS pp pp pp
0.0000000000000000e+00 2.2430000000000000e+01
0.0000000000000000e+00 5.0000000000000000e+00
0.0000000000000000e+00 5.0000000000000000e+00
ITEM: ATOMS id type xs ys zs
16 1 0.762209 0.460371 0.264646
17 1 0.804721 0.624756 0.275802
3 1 0.162701 0.323703 0.592421
1 1 0.0986935 0.430972 0.478834
4 1 0.208017 0.361297 0.488813
5 1 0.249334 0.513737 0.554133
7 1 0.342867 0.574277 0.633701
8 1 0.383398 0.416963 0.592362
9 1 0.431903 0.491694 0.644835
10 1 0.468222 0.514119 0.46818
11 1 0.521423 0.538774 0.423528
12 1 0.575864 0.596055 0.478508
13 1 0.62639 0.484121 0.539371
14 1 0.657521 0.52718 0.315022
15 1 0.712095 0.488967 0.385841
18 1 0.816244 0.650083 0.541684
19 1 0.864837 0.563109 0.506527
20 1 0.897657 0.39583 0.43551
2 1 0.12649 0.439742 0.691284
6 1 0.289414 0.60425 0.688998
ITEM: TIMESTEP
1200
ITEM: NUMBER OF ATOMS
20
ITEM: BOX BOUNDS pp pp pp
0.0000000000000000e+00 2.2430000000000000e+01
0.0000000000000000e+00 5.0000000000000000e+00
0.0000000000000000e+00 5.0000000000000000e+00
ITEM: ATOMS id type xs ys zs
16 1 0.750728 0.502989 0.287806
17 1 0.796086 0.624442 0.280012
3 1 0.168089 0.302513 0.591123
1 1 0.108554 0.430176 0.488518
4 1 0.213365 0.402993 0.481216
5 1 0.261328 0.470733 0.584756
7 1 0.354595 0.602332 0.620281
8 1 0.384356 0.412609 0.577899
9 1 0.43057 0.508715 0.627748
10 1 0.474827 0.512167 0.493824
11 1 0.5254 0.537163 0.407984
12 1 0.566525 0.589373 0.532357
13 1 0.61281 0.531528 0.4932
14 1 0.654087 0.489684 0.365658
15 1 0.703763 0.441899 0.341309
18 1 0.813605 0.671044 0.503794
19 1 0.86117 0.573681 0.51719
20 1 0.886886 0.380857 0.424567
2 1 0.13089 0.431858 0.719402
6 1 0.302364 0.583243 0.661354
ITEM: TIMESTEP
1300
ITEM: NUMBER OF ATOMS
20
ITEM: BOX BOUNDS pp pp pp
0.0000000000000000e+00 2.2430000000000000e+01
0.0000000000000000e+00 5.0000000000000000e+00
0.0000000000000000e+00 5.0000000000000000e+00
ITEM: ATOMS id type xs ys zs
16 1 0.737819 0.563332 0.336635
17 1 0.791914 0.624029 0.279135
3 1 0.176025 0.310438 0.582929
1 1 0.1189 0.428271 0.509867
4 1 0.217747 0.429886 0.502377
5 1 0.267179 0.431236 0.59762
7 1 0.367215 0.628014 0.605923
8 1 0.384573 0.404712 0.562207
9 1 0.430843 0.527279 0.615392
10 1 0.479316 0.510492 0.51603
11 1 0.526422 0.53384 0.393136
12 1 0.55414 0.595357 0.587541
13 1 0.602484 0.574601 0.456317
14 1 0.65452 0.447828 0.428674
15 1 0.698622 0.380412 0.253667
18 1 0.809717 0.688371 0.465527
19 1 0.85724 0.581494 0.527902
20 1 0.875654 0.366694 0.413464
2 1 0.137543 0.411627 0.724959
6 1 0.312125 0.562088 0.640695
ITEM: TIMESTEP
1400
ITEM: NUMBER OF ATOMS
20
ITEM: BOX BOUNDS pp pp pp
0.0000000000000000e+00 2.2430000000000000e+01
0.0000000000000000e+00 5.0000000000000000e+00
0.0000000000000000e+00 5.0000000000000000e+00
ITEM: ATOMS id type xs ys zs
16 1 0.726806 0.558552 0.327487
17 1 0.77523 0.608473 0.280959
3 1 0.183155 0.326821 0.583002
1 1 0.126872 0.4272 0.517184
4 1 0.225258 0.448934 0.531168
5 1 0.275937 0.421773 0.611532
7 1 0.368375 0.636776 0.601133
8 1 0.386816 0.410203 0.552822
9 1 0.432884 0.53559 0.592238
10 1 0.482079 0.511398 0.536107
11 1 0.525168 0.531314 0.391858
12 1 0.560574 0.588112 0.583425
13 1 0.605546 0.547708 0.458117
14 1 0.645132 0.454431 0.406728
15 1 0.686735 0.428405 0.304672
18 1 0.808492 0.699995 0.452002
19 1 0.852182 0.570628 0.516809
20 1 0.864676 0.378566 0.417935
2 1 0.145891 0.390473 0.734111
6 1 0.322191 0.52465 0.600713
ITEM: TIMESTEP
1500
ITEM: NUMBER OF ATOMS
20
ITEM: BOX BOUNDS pp pp pp
0.0000000000000000e+00 2.2430000000000000e+01
0.0000000000000000e+00 5.0000000000000000e+00
0.0000000000000000e+00 5.0000000000000000e+00
ITEM: ATOMS id type xs ys zs
16 1 0.71777 0.5978 0.33773
17 1 0.768132 0.603191 0.281103
3 1 0.188997 0.332085 0.575219
1 1 0.135343 0.427112 0.525265
4 1 0.233352 0.485557 0.555458
5 1 0.28497 0.394652 0.629657
7 1 0.374599 0.642556 0.590493
8 1 0.387098 0.418966 0.542642
9 1 0.434009 0.549476 0.572879
10 1 0.48596 0.510401 0.558682
11 1 0.528544 0.532941 0.397066
12 1 0.549085 0.590166 0.607271
13 1 0.597084 0.572725 0.467074
14 1 0.632825 0.406423 0.396415
15 1 0.68541 0.409847 0.290952
18 1 0.810116 0.716871 0.420099
19 1 0.846883 0.572256 0.52133
20 1 0.853983 0.375875 0.413875
2 1 0.152709 0.368356 0.752649
6 1 0.333129 0.492744 0.564141
ITEM: TIMESTEP
1600
ITEM: NUMBER OF ATOMS
20
ITEM: BOX BOUNDS pp pp pp
0.0000000000000000e+00 2.2430000000000000e+01
0.0000000000000000e+00 5.0000000000000000e+00
0.0000000000000000e+00 5.0000000000000000e+00
ITEM: ATOMS id type xs ys zs
16 1 0.709945 0.60039 0.328261
17 1 0.760245 0.627786 0.301343
3 1 0.201198 0.370621 0.58028
1 1 0.145654 0.426389 0.540825
4 1 0.246776 0.470226 0.601811
5 1 0.293658 0.410742 0.621934
7 1 0.374248 0.644204 0.578958
8 1 0.392586 0.426568 0.530453
9 1 0.437344 0.54911 0.54487
10 1 0.487238 0.514959 0.576054
11 1 0.52607 0.532807 0.413335
12 1 0.545068 0.599441 0.606458
13 1 0.587077 0.535789 0.487622
14 1 0.622112 0.416925 0.387093
15 1 0.675901 0.413942 0.302766
18 1 0.808439 0.699276 0.382823
19 1 0.840438 0.598012 0.525395
20 1 0.840553 0.365783 0.401145
2 1 0.163318 0.341633 0.752804
6 1 0.34213 0.455396 0.53577
ITEM: TIMESTEP
1700
ITEM: NUMBER OF ATOMS
20
ITEM: BOX BOUNDS pp pp pp
0.0000000000000000e+00 2.2430000000000000e+01
0.0000000000000000e+00 5.0000000000000000e+00
0.0000000000000000e+00 5.0000000000000000e+00
ITEM: ATOMS id type xs ys zs
16 1 0.705189 0.563094 0.286515
17 1 0.750019 0.679711 0.351795
3 1 0.205677 0.4004 0.57615
1 1 0.156275 0.422307 0.558243
4 1 0.256273 0.482518 0.64889
5 1 0.308014 0.409551 0.630459
7 1 0.37321 0.643683 0.567289
8 1 0.394498 0.423165 0.516954
9 1 0.439846 0.562346 0.514248
10 1 0.492537 0.515672 0.597016
11 1 0.522234 0.528599 0.415118
12 1 0.543214 0.631483 0.61671
13 1 0.575686 0.447847 0.525794
14 1 0.613065 0.465246 0.34974
15 1 0.665944 0.437059 0.343907
18 1 0.8063 0.667547 0.325337
19 1 0.83552 0.59911 0.522359
20 1 0.826529 0.38289 0.402862
2 1 0.172863 0.312996 0.754356
6 1 0.357105 0.424775 0.496259
ITEM: TIMESTEP
1800
ITEM: NUMBER OF ATOMS
20
ITEM: BOX BOUNDS pp pp pp
0.0000000000000000e+00 2.2430000000000000e+01
0.0000000000000000e+00 5.0000000000000000e+00
0.0000000000000000e+00 5.0000000000000000e+00
ITEM: ATOMS id type xs ys zs
16 1 0.705393 0.555993 0.275331
17 1 0.749684 0.701804 0.37001
3 1 0.215759 0.425096 0.610916
1 1 0.165043 0.427282 0.562498
4 1 0.268088 0.461821 0.668371
5 1 0.317088 0.426953 0.617297
7 1 0.371791 0.632447 0.553552
8 1 0.400965 0.436818 0.505115
9 1 0.443661 0.554082 0.49201
10 1 0.490208 0.521492 0.619552
11 1 0.520425 0.526161 0.413002
12 1 0.544504 0.626079 0.612707
13 1 0.565025 0.42028 0.539132
14 1 0.601106 0.476579 0.365621
15 1 0.654876 0.460211 0.348818
18 1 0.796058 0.640786 0.303919
19 1 0.826786 0.598316 0.497456
20 1 0.815125 0.408504 0.408595
2 1 0.186657 0.295478 0.744962
6 1 0.361758 0.403819 0.491136
ITEM: TIMESTEP
1900
ITEM: NUMBER OF ATOMS
20
ITEM: BOX BOUNDS pp pp pp
0.0000000000000000e+00 2.2430000000000000e+01
0.0000000000000000e+00 5.0000000000000000e+00
0.0000000000000000e+00 5.0000000000000000e+00
ITEM: ATOMS id type xs ys zs
16 1 0.697632 0.522291 0.356154
17 1 0.739342 0.684785 0.34665
3 1 0.223821 0.465674 0.637735
1 1 0.175618 0.420921 0.579059
4 1 0.278144 0.434965 0.697316
5 1 0.327221 0.449108 0.606291
7 1 0.369981 0.617649 0.538869
8 1 0.404365 0.441622 0.492842
9 1 0.450024 0.553479 0.473047
10 1 0.490043 0.528887 0.637651
11 1 0.518888 0.525717 0.419903
12 1 0.544259 0.618113 0.602279
13 1 0.557428 0.399247 0.521876
14 1 0.605952 0.461443 0.416384
15 1 0.645305 0.567793 0.296572
18 1 0.78508 0.61423 0.297051
19 1 0.81783 0.624821 0.473101
20 1 0.802285 0.406037 0.40068
2 1 0.19644 0.278002 0.728988
6 1 0.37034 0.385216 0.477551
ITEM: TIMESTEP
2000
ITEM: NUMBER OF ATOMS
20
ITEM: BOX BOUNDS pp pp pp
0.0000000000000000e+00 2.2430000000000000e+01
0.0000000000000000e+00 5.0000000000000000e+00
0.0000000000000000e+00 5.0000000000000000e+00
ITEM: ATOMS id type xs ys zs
16 1 0.682842 0.535565 0.386996
17 1 0.723132 0.666607 0.342189
3 1 0.234701 0.470743 0.678904
1 1 0.183516 0.428919 0.580523
4 1 0.285821 0.426434 0.703887
5 1 0.333467 0.458494 0.60305
7 1 0.367617 0.60238 0.525094
8 1 0.407175 0.445502 0.480861
9 1 0.457581 0.550452 0.453366
10 1 0.49231 0.536244 0.637907
11 1 0.512597 0.518533 0.429928
12 1 0.546504 0.606806 0.603296
13 1 0.558076 0.401408 0.500727
14 1 0.609048 0.471692 0.437776
15 1 0.639924 0.601662 0.3125
18 1 0.775592 0.577793 0.27173
19 1 0.812537 0.639083 0.45997
20 1 0.79101 0.415056 0.400426
2 1 0.210178 0.26996 0.719259
6 1 0.376372 0.376667 0.471611
ITEM: TIMESTEP
2100
ITEM: NUMBER OF ATOMS
20
ITEM: BOX BOUNDS pp pp pp
0.0000000000000000e+00 2.2430000000000000e+01
0.0000000000000000e+00 5.0000000000000000e+00
0.0000000000000000e+00 5.0000000000000000e+00
ITEM: ATOMS id type xs ys zs
15 1 0.628487 0.653289 0.311404
18 1 0.76479 0.560789 0.288006
1 1 0.192173 0.430423 0.588592
5 1 0.341667 0.463594 0.590882
7 1 0.368378 0.593301 0.511554
8 1 0.4109 0.471758 0.469666
6 1 0.380308 0.353569 0.47088
9 1 0.462982 0.537665 0.459894
10 1 0.489301 0.546279 0.642076
11 1 0.51267 0.517156 0.430692
12 1 0.544153 0.595118 0.593409
13 1 0.557964 0.392064 0.468043
14 1 0.611729 0.475479 0.470299
16 1 0.674566 0.538251 0.43151
17 1 0.713721 0.639177 0.320126
19 1 0.804131 0.650672 0.419545
20 1 0.779792 0.419249 0.400767
2 1 0.221725 0.26084 0.703574
3 1 0.24506 0.485292 0.721436
4 1 0.295503 0.416036 0.707643
ITEM: TIMESTEP
2200
ITEM: NUMBER OF ATOMS
20
ITEM: BOX BOUNDS pp pp pp
0.0000000000000000e+00 2.2430000000000000e+01
0.0000000000000000e+00 5.0000000000000000e+00
0.0000000000000000e+00 5.0000000000000000e+00
ITEM: ATOMS id type xs ys zs
15 1 0.62168 0.683469 0.338015
18 1 0.749405 0.542866 0.287953
1 1 0.202667 0.431054 0.598181
5 1 0.34923 0.471116 0.586024
7 1 0.364047 0.560374 0.495631
8 1 0.415767 0.487503 0.452028
6 1 0.386842 0.356796 0.46544
9 1 0.4717 0.521276 0.431929
10 1 0.492839 0.556646 0.650214
11 1 0.506301 0.510863 0.442101
12 1 0.545929 0.575791 0.592698
13 1 0.564525 0.409486 0.451454
14 1 0.607479 0.48982 0.477575
16 1 0.659901 0.54927 0.466714
17 1 0.699081 0.604962 0.305431
19 1 0.795091 0.635975 0.384525
20 1 0.769482 0.452665 0.404283
2 1 0.237377 0.266815 0.682433
3 1 0.255705 0.485432 0.771957
4 1 0.304953 0.407823 0.715413
ITEM: TIMESTEP
2300
ITEM: NUMBER OF ATOMS
20
ITEM: BOX BOUNDS pp pp pp
0.0000000000000000e+00 2.2430000000000000e+01
0.0000000000000000e+00 5.0000000000000000e+00
0.0000000000000000e+00 5.0000000000000000e+00
ITEM: ATOMS id type xs ys zs
15 1 0.617206 0.720608 0.364271
18 1 0.735485 0.556322 0.317751
1 1 0.214223 0.43069 0.609054
5 1 0.357914 0.464274 0.577673
7 1 0.369314 0.541878 0.47212
8 1 0.420584 0.519256 0.439572
6 1 0.393958 0.341008 0.465727
9 1 0.472446 0.508675 0.446231
10 1 0.491031 0.570124 0.658328
11 1 0.505265 0.500599 0.43049
12 1 0.543059 0.554678 0.580336
13 1 0.565632 0.412543 0.426011
14 1 0.61135 0.49874 0.498059
16 1 0.644936 0.586913 0.490029
17 1 0.683383 0.541575 0.293489
19 1 0.781229 0.635976 0.326584
20 1 0.753362 0.452421 0.401835
2 1 0.255836 0.2926 0.670824
3 1 0.268601 0.462942 0.816683
4 1 0.315185 0.408177 0.714933
ITEM: TIMESTEP
2400
ITEM: NUMBER OF ATOMS
20
ITEM: BOX BOUNDS pp pp pp
0.0000000000000000e+00 2.2430000000000000e+01
0.0000000000000000e+00 5.0000000000000000e+00
0.0000000000000000e+00 5.0000000000000000e+00
ITEM: ATOMS id type xs ys zs
15 1 0.607126 0.730542 0.384908
18 1 0.719481 0.555176 0.335801
1 1 0.225058 0.428036 0.619143
5 1 0.365606 0.456728 0.571575
7 1 0.37089 0.520218 0.452308
8 1 0.423815 0.565007 0.422776
6 1 0.400377 0.326539 0.464394
9 1 0.474542 0.477806 0.446855
10 1 0.493201 0.583599 0.66063
11 1 0.5007 0.495939 0.433883
12 1 0.542658 0.539388 0.579335
13 1 0.568607 0.425709 0.3993
14 1 0.614763 0.550927 0.493992
16 1 0.642473 0.57596 0.512574
17 1 0.662892 0.499113 0.308709
19 1 0.771629 0.627048 0.285144
20 1 0.741534 0.472925 0.399382
2 1 0.270665 0.315255 0.660497
3 1 0.280559 0.445132 0.850399
4 1 0.323425 0.408953 0.718397
ITEM: TIMESTEP
2500
ITEM: NUMBER OF ATOMS
20
ITEM: BOX BOUNDS pp pp pp
0.0000000000000000e+00 2.2430000000000000e+01
0.0000000000000000e+00 5.0000000000000000e+00
0.0000000000000000e+00 5.0000000000000000e+00
ITEM: ATOMS id type xs ys zs
15 1 0.603838 0.749505 0.407691
18 1 0.706173 0.567637 0.33493
1 1 0.234565 0.426255 0.627955
5 1 0.37212 0.45474 0.566511
7 1 0.377176 0.509941 0.430345
8 1 0.426783 0.572317 0.415093
6 1 0.407991 0.314317 0.459136
9 1 0.472929 0.480446 0.459244
10 1 0.493923 0.589625 0.657428
11 1 0.496778 0.487099 0.428425
12 1 0.542157 0.520525 0.572345
13 1 0.575079 0.458226 0.382991
14 1 0.618085 0.530444 0.517682
16 1 0.632255 0.598819 0.483122
17 1 0.657501 0.47961 0.343809
19 1 0.750832 0.618848 0.242012
20 1 0.726053 0.467538 0.412479
2 1 0.284432 0.337116 0.65023
3 1 0.291879 0.424981 0.883197
4 1 0.329449 0.41201 0.725373
ITEM: TIMESTEP
2600
ITEM: NUMBER OF ATOMS
20
ITEM: BOX BOUNDS pp pp pp
0.0000000000000000e+00 2.2430000000000000e+01
0.0000000000000000e+00 5.0000000000000000e+00
0.0000000000000000e+00 5.0000000000000000e+00
ITEM: ATOMS id type xs ys zs
15 1 0.591119 0.773489 0.435593
18 1 0.68881 0.577863 0.358561
1 1 0.246027 0.421024 0.63779
5 1 0.378824 0.448702 0.563209
7 1 0.378878 0.485685 0.407543
8 1 0.430387 0.596675 0.399262
6 1 0.414305 0.31117 0.45494
9 1 0.475055 0.467798 0.472162
10 1 0.495865 0.598653 0.6581
11 1 0.494248 0.483036 0.435556
12 1 0.542446 0.495778 0.544796
13 1 0.580525 0.492393 0.383733
14 1 0.61634 0.589142 0.498737
16 1 0.628408 0.586195 0.516954
17 1 0.650093 0.401187 0.348139
19 1 0.736055 0.593014 0.210264
20 1 0.714806 0.494905 0.391024
2 1 0.298354 0.375969 0.664702
3 1 0.301317 0.394397 0.895413
4 1 0.338139 0.412927 0.72352
ITEM: TIMESTEP
2700
ITEM: NUMBER OF ATOMS
20
ITEM: BOX BOUNDS pp pp pp
0.0000000000000000e+00 2.2430000000000000e+01
0.0000000000000000e+00 5.0000000000000000e+00
0.0000000000000000e+00 5.0000000000000000e+00
ITEM: ATOMS id type xs ys zs
15 1 0.583985 0.768542 0.481421
18 1 0.67658 0.56368 0.342124
1 1 0.258888 0.415574 0.648119
5 1 0.384234 0.439205 0.567196
7 1 0.386712 0.480763 0.38162
8 1 0.432318 0.58115 0.393831
6 1 0.421467 0.310088 0.453177
9 1 0.472096 0.477512 0.473862
10 1 0.498636 0.600426 0.648532
11 1 0.490864 0.480498 0.452053
12 1 0.542707 0.474476 0.519604
13 1 0.586237 0.515368 0.376465
14 1 0.628377 0.606834 0.496992
16 1 0.613443 0.600109 0.468917
17 1 0.641805 0.404555 0.406872
19 1 0.711438 0.585461 0.178133
20 1 0.697025 0.500609 0.411019
2 1 0.312346 0.408939 0.672753
3 1 0.314871 0.368988 0.902747
4 1 0.345972 0.417224 0.724563
ITEM: TIMESTEP
2800
ITEM: NUMBER OF ATOMS
20
ITEM: BOX BOUNDS pp pp pp
0.0000000000000000e+00 2.2430000000000000e+01
0.0000000000000000e+00 5.0000000000000000e+00
0.0000000000000000e+00 5.0000000000000000e+00
ITEM: ATOMS id type xs ys zs
15 1 0.584536 0.769379 0.533497
18 1 0.658353 0.563698 0.360911
1 1 0.272384 0.409492 0.658127
5 1 0.391524 0.443952 0.55977
7 1 0.390196 0.4509 0.362562
8 1 0.434921 0.594208 0.379016
6 1 0.429644 0.312244 0.436123
9 1 0.475594 0.475862 0.493805
10 1 0.501183 0.606654 0.649874
11 1 0.491602 0.467883 0.460369
12 1 0.542607 0.456168 0.462546
13 1 0.589234 0.524774 0.395776
14 1 0.628621 0.682646 0.494291
16 1 0.604968 0.57676 0.416154
17 1 0.629156 0.367948 0.460808
19 1 0.692868 0.563834 0.159607
20 1 0.681004 0.529174 0.382665
2 1 0.325136 0.445046 0.694386
3 1 0.324181 0.338667 0.913044
4 1 0.352288 0.420714 0.726668
ITEM: TIMESTEP
2900
ITEM: NUMBER OF ATOMS
20
ITEM: BOX BOUNDS pp pp pp
0.0000000000000000e+00 2.2430000000000000e+01
0.0000000000000000e+00 5.0000000000000000e+00
0.0000000000000000e+00 5.0000000000000000e+00
ITEM: ATOMS id type xs ys zs
15 1 0.580754 0.735047 0.56252
18 1 0.643613 0.524632 0.343821
1 1 0.286159 0.405173 0.668423
5 1 0.399767 0.431424 0.552896
7 1 0.393548 0.443108 0.341278
8 1 0.435555 0.592203 0.370042
6 1 0.438434 0.325528 0.443307
9 1 0.476298 0.472895 0.501713
10 1 0.50383 0.609437 0.640746
11 1 0.488877 0.457131 0.47641
12 1 0.547734 0.451493 0.421857
13 1 0.598822 0.55365 0.416283
14 1 0.634076 0.717186 0.468525
16 1 0.593555 0.581048 0.404593
17 1 0.619984 0.377024 0.485367
19 1 0.668973 0.55189 0.156198
20 1 0.659347 0.556756 0.399345
2 1 0.335685 0.471517 0.721412
3 1 0.334012 0.317107 0.907951
4 1 0.360977 0.425751 0.717314
ITEM: TIMESTEP
3000
ITEM: NUMBER OF ATOMS
20
ITEM: BOX BOUNDS pp pp pp
0.0000000000000000e+00 2.2430000000000000e+01
0.0000000000000000e+00 5.0000000000000000e+00
0.0000000000000000e+00 5.0000000000000000e+00
ITEM: ATOMS id type xs ys zs
15 1 0.584291 0.704586 0.590846
18 1 0.630426 0.518736 0.367
1 1 0.299033 0.401523 0.678255
5 1 0.404485 0.429907 0.555542
7 1 0.403311 0.419422 0.340401
8 1 0.439134 0.585191 0.370262
6 1 0.448742 0.353634 0.423807
9 1 0.473928 0.478264 0.506315
10 1 0.507675 0.604384 0.622881
11 1 0.501617 0.426207 0.477061
12 1 0.545953 0.489643 0.385753
13 1 0.590349 0.596909 0.448679
14 1 0.626841 0.764409 0.452558
16 1 0.591057 0.540183 0.391681
17 1 0.605134 0.363978 0.53284
19 1 0.652719 0.551878 0.139356
20 1 0.637826 0.547464 0.358188
2 1 0.345534 0.500732 0.742597
3 1 0.344665 0.298209 0.895209
4 1 0.36728 0.42474 0.720767
ITEM: TIMESTEP
3100
ITEM: NUMBER OF ATOMS
20
ITEM: BOX BOUNDS pp pp pp
0.0000000000000000e+00 2.2430000000000000e+01
0.0000000000000000e+00 5.0000000000000000e+00
0.0000000000000000e+00 5.0000000000000000e+00
ITEM: ATOMS id type xs ys zs
19 1 0.636513 0.543581 0.130146
5 1 0.413988 0.426557 0.549075
7 1 0.408513 0.401251 0.334654
8 1 0.43993 0.587759 0.361234
6 1 0.45596 0.380079 0.415823
9 1 0.470979 0.46792 0.513932
11 1 0.50474 0.401453 0.497136
10 1 0.513518 0.598709 0.601521
12 1 0.535906 0.501657 0.361479
13 1 0.579645 0.606916 0.47706
16 1 0.579376 0.562654 0.392501
17 1 0.598332 0.393892 0.537509
18 1 0.624798 0.494076 0.359648
20 1 0.632679 0.554895 0.377917
15 1 0.590992 0.679678 0.602263
14 1 0.621436 0.769568 0.435417
3 1 0.351603 0.294859 0.884161
1 1 0.310044 0.3965 0.685607
2 1 0.354823 0.501276 0.781533
4 1 0.376226 0.43672 0.701383
ITEM: TIMESTEP
3200
ITEM: NUMBER OF ATOMS
20
ITEM: BOX BOUNDS pp pp pp
0.0000000000000000e+00 2.2430000000000000e+01
0.0000000000000000e+00 5.0000000000000000e+00
0.0000000000000000e+00 5.0000000000000000e+00
ITEM: ATOMS id type xs ys zs
19 1 0.621153 0.546191 0.13803
5 1 0.424202 0.429837 0.554837
7 1 0.413432 0.385321 0.327021
8 1 0.441473 0.584889 0.354949
6 1 0.465055 0.398913 0.395676
9 1 0.468872 0.482412 0.540103
11 1 0.509464 0.353133 0.518462
10 1 0.51532 0.58809 0.574562
12 1 0.522559 0.531377 0.350851
13 1 0.573066 0.585732 0.435532
16 1 0.582227 0.620932 0.412721
17 1 0.590419 0.415107 0.559522
18 1 0.615558 0.499981 0.379954
20 1 0.627317 0.538171 0.372893
15 1 0.59339 0.649841 0.623888
14 1 0.606633 0.754971 0.398255
3 1 0.361511 0.278853 0.863773
1 1 0.324035 0.398526 0.699672
2 1 0.361651 0.526164 0.79614
4 1 0.38266 0.431559 0.70316
ITEM: TIMESTEP
3300
ITEM: NUMBER OF ATOMS
20
ITEM: BOX BOUNDS pp pp pp
0.0000000000000000e+00 2.2430000000000000e+01
0.0000000000000000e+00 5.0000000000000000e+00
0.0000000000000000e+00 5.0000000000000000e+00
ITEM: ATOMS id type xs ys zs
19 1 0.603264 0.563175 0.147725
5 1 0.428812 0.402543 0.526784
7 1 0.422221 0.362018 0.324409
8 1 0.446199 0.578359 0.361733
6 1 0.472598 0.42899 0.406222
9 1 0.476098 0.510568 0.544053
11 1 0.513744 0.329889 0.513958
10 1 0.526939 0.587339 0.54451
12 1 0.506491 0.543614 0.364745
13 1 0.559424 0.546709 0.377416
16 1 0.577244 0.620601 0.403706
17 1 0.575928 0.481568 0.568851
18 1 0.610635 0.534044 0.384627
20 1 0.617576 0.502533 0.37969
15 1 0.602445 0.644664 0.634942
14 1 0.594158 0.718669 0.429152
3 1 0.369249 0.282093 0.848236
1 1 0.335864 0.388352 0.706547
2 1 0.372893 0.52416 0.835479
4 1 0.388218 0.450113 0.697218
ITEM: TIMESTEP
3400
ITEM: NUMBER OF ATOMS
20
ITEM: BOX BOUNDS pp pp pp
0.0000000000000000e+00 2.2430000000000000e+01
0.0000000000000000e+00 5.0000000000000000e+00
0.0000000000000000e+00 5.0000000000000000e+00
ITEM: ATOMS id type xs ys zs
19 1 0.58571 0.582393 0.184209
5 1 0.422395 0.369497 0.522605
7 1 0.428026 0.342426 0.313374
8 1 0.453214 0.564648 0.363628
6 1 0.471978 0.398598 0.434589
9 1 0.484753 0.537385 0.552053
11 1 0.518453 0.367885 0.482965
10 1 0.536296 0.597751 0.481374
12 1 0.505492 0.585642 0.378833
13 1 0.556284 0.510156 0.32086
16 1 0.575838 0.675532 0.429636
17 1 0.577611 0.49694 0.609516
18 1 0.60144 0.499963 0.411787
20 1 0.602649 0.490595 0.394744
15 1 0.604895 0.614592 0.590546
14 1 0.572156 0.713599 0.418796
3 1 0.377735 0.288695 0.828075
1 1 0.35044 0.384405 0.718782
2 1 0.38158 0.52372 0.86604
4 1 0.393055 0.45558 0.697588
ITEM: TIMESTEP