LAMMPS data file - lamellar Kremer-Grest chain

20 atoms
19 bonds

1 atom types
1 bond types

0.0 22.43 xlo xhi
0.0 5.00 ylo yhi
0.0 5.00 zlo zhi

Masses

1 1.0

Atoms

1 1 1 2.00000 2.50000 2.50000
2 1 1 2.97000 2.50000 2.50000
3 1 1 3.94000 2.50000 2.50000
4 1 1 4.91000 2.50000 2.50000
5 1 1 5.88000 2.50000 2.50000
6 1 1 6.85000 2.50000 2.50000
7 1 1 7.82000 2.50000 2.50000
8 1 1 8.79000 2.50000 2.50000
9 1 1 9.76000 2.50000 2.50000
10 1 1 10.73000 2.50000 2.50000
11 1 1 11.70000 2.50000 2.50000
12 1 1 12.67000 2.50000 2.50000
13 1 1 13.64000 2.50000 2.50000
14 1 1 14.61000 2.50000 2.50000
15 1 1 15.58000 2.50000 2.50000
16 1 1 16.55000 2.50000 2.50000
17 1 1 17.52000 2.50000 2.50000
18 1 1 18.49000 2.50000 2.50000
19 1 1 19.46000 2.50000 2.50000
20 1 1 20.43000 2.50000 2.50000

Bonds

1 1 1 2
2 1 2 3
3 1 3 4
4 1 4 5
5 1 5 6
6 1 6 7
7 1 7 8
8 1 8 9
9 1 9 10
10 1 10 11
11 1 11 12
12 1 12 13
13 1 13 14
14 1 14 15
15 1 15 16
16 1 16 17
17 1 17 18
18 1 18 19
19 1 19 20
